<?xml version="1.0" encoding="UTF-8"?>

<!-- generated on 2026-05-08T12:32:10.164541+01:00 by Eclipse SUMO GUI 1.25.0
<sumoConfiguration xmlns:xsi="http://www.w3.org/2001/XMLSchema-instance" xsi:noNamespaceSchemaLocation="http://sumo.dlr.de/xsd/sumoConfiguration.xsd">

    <input>
        <net-file value="simulation/landau_corridor.net.xml"/>
        <route-files value="C:\Users\mogul\OneDrive\Masaüstü\mt_emre\digital_twin\simulation\weekend_morning_sampled_warmup15.rou.xml"/>
        <additional-files value="C:\Users\mogul\OneDrive\Masaüstü\mt_emre\digital_twin\simulation\traffic_mix.add.xml,C:\Users\mogul\OneDrive\Masaüstü\mt_emre\digital_twin\simulation\Corridor_detectors_e1.add.xml,C:\Users\mogul\OneDrive\Masaüstü\mt_emre\digital_twin\simulation\Corridor_detectors_e2.add.xml,C:\Users\mogul\OneDrive\Masaüstü\mt_emre\digital_twin\simulation\tls_9873_weekend_morning.xml,C:\Users\mogul\OneDrive\Masaüstü\mt_emre\digital_twin\simulation\tls_9876_weekend_morning.xml,C:\Users\mogul\OneDrive\Masaüstü\mt_emre\digital_twin\simulation\tls_9874_morning.xml,C:\Users\mogul\OneDrive\Masaüstü\mt_emre\digital_twin\simulation\tls_LSA9_weekend_morning.xml,C:\Users\mogul\OneDrive\Masaüstü\mt_emre\digital_twin\simulation\tls_9869_weekend_morning.xml"/>
    </input>

    <time>
        <begin value="0"/>
        <end value="4500"/>
    </time>

    <traci_server>
        <remote-port value="55631"/>
    </traci_server>

    <gui_only>
        <start value="true"/>
    </gui_only>

</sumoConfiguration>
-->

<detector xmlns:xsi="http://www.w3.org/2001/XMLSchema-instance" xsi:noNamespaceSchemaLocation="http://sumo.dlr.de/xsd/det_e2_file.xsd">
   <interval begin="0.00" end="300.00" id="LSA16_W_id3" sampledSeconds="252.58" nVehEntered="17" nVehLeft="17" nVehSeen="17" meanSpeed="1.06" meanTimeLoss="13.71" meanOccupancy="32.56" maxOccupancy="95.88" meanMaxJamLengthInVehicles="0.67" meanMaxJamLengthInMeters="3.21" maxJamLengthInVehicles="2" maxJamLengthInMeters="9.43" jamLengthInVehiclesSum="201" jamLengthInMetersSum="963.23" meanHaltingDuration="29.71" maxHaltingDuration="48.00" haltingDurationSum="208.00" meanIntervalHaltingDuration="29.71" maxIntervalHaltingDuration="48.00" intervalHaltingDurationSum="208.00" startedHalts="7.00" meanVehicleNumber="0.90" maxVehicleNumber="2" />
   <interval begin="0.00" end="300.00" id="LSA9_W_id1" sampledSeconds="49.04" nVehEntered="14" nVehLeft="14" nVehSeen="14" meanSpeed="4.11" meanTimeLoss="2.37" meanOccupancy="6.41" maxOccupancy="80.78" meanMaxJamLengthInVehicles="0.06" meanMaxJamLengthInMeters="0.27" maxJamLengthInVehicles="1" maxJamLengthInMeters="4.50" jamLengthInVehiclesSum="18" jamLengthInMetersSum="81.00" meanHaltingDuration="7.00" maxHaltingDuration="19.00" haltingDurationSum="21.00" meanIntervalHaltingDuration="7.00" maxIntervalHaltingDuration="19.00" intervalHaltingDurationSum="21.00" startedHalts="3.00" meanVehicleNumber="0.21" maxVehicleNumber="2" />
   <interval begin="0.00" end="300.00" id="LSA9_W_id2" sampledSeconds="143.61" nVehEntered="13" nVehLeft="11" nVehSeen="13" meanSpeed="1.22" meanTimeLoss="10.09" meanOccupancy="18.89" maxOccupancy="88.25" meanMaxJamLengthInVehicles="0.35" meanMaxJamLengthInMeters="1.62" maxJamLengthInVehicles="2" maxJamLengthInMeters="9.98" jamLengthInVehiclesSum="106" jamLengthInMetersSum="487.02" meanHaltingDuration="13.75" maxHaltingDuration="35.00" haltingDurationSum="110.00" meanIntervalHaltingDuration="13.75" maxIntervalHaltingDuration="35.00" intervalHaltingDurationSum="110.00" startedHalts="9.00" meanVehicleNumber="0.52" maxVehicleNumber="2" />
   <interval begin="300.00" end="600.00" id="LSA16_W_id3" sampledSeconds="195.46" nVehEntered="15" nVehLeft="14" nVehSeen="15" meanSpeed="1.17" meanTimeLoss="11.89" meanOccupancy="25.09" maxOccupancy="90.88" meanMaxJamLengthInVehicles="0.51" meanMaxJamLengthInMeters="2.39" maxJamLengthInVehicles="2" maxJamLengthInMeters="9.43" jamLengthInVehiclesSum="152" jamLengthInMetersSum="717.07" meanHaltingDuration="22.71" maxHaltingDuration="51.00" haltingDurationSum="159.00" meanIntervalHaltingDuration="22.71" maxIntervalHaltingDuration="51.00" intervalHaltingDurationSum="159.00" startedHalts="7.00" meanVehicleNumber="0.70" maxVehicleNumber="2" />
   <interval begin="300.00" end="600.00" id="LSA9_W_id1" sampledSeconds="198.75" nVehEntered="21" nVehLeft="21" nVehSeen="21" meanSpeed="1.54" meanTimeLoss="8.31" meanOccupancy="26.61" maxOccupancy="80.88" meanMaxJamLengthInVehicles="0.52" meanMaxJamLengthInMeters="2.43" maxJamLengthInVehicles="2" maxJamLengthInMeters="9.59" jamLengthInVehiclesSum="155" jamLengthInMetersSum="729.25" meanHaltingDuration="32.00" maxHaltingDuration="36.00" haltingDurationSum="160.00" meanIntervalHaltingDuration="32.00" maxIntervalHaltingDuration="36.00" intervalHaltingDurationSum="160.00" startedHalts="5.00" meanVehicleNumber="0.73" maxVehicleNumber="2" />
   <interval begin="300.00" end="600.00" id="LSA9_W_id2" sampledSeconds="291.33" nVehEntered="28" nVehLeft="30" nVehSeen="30" meanSpeed="1.38" meanTimeLoss="8.74" meanOccupancy="38.81" maxOccupancy="84.78" meanMaxJamLengthInVehicles="0.69" meanMaxJamLengthInMeters="3.23" maxJamLengthInVehicles="3" maxJamLengthInMeters="10.00" jamLengthInVehiclesSum="206" jamLengthInMetersSum="968.77" meanHaltingDuration="14.87" maxHaltingDuration="40.00" haltingDurationSum="223.00" meanIntervalHaltingDuration="14.27" maxIntervalHaltingDuration="40.00" intervalHaltingDurationSum="214.00" startedHalts="14.00" meanVehicleNumber="1.07" maxVehicleNumber="3" />
   <interval begin="600.00" end="900.00" id="LSA16_W_id3" sampledSeconds="191.22" nVehEntered="9" nVehLeft="10" nVehSeen="10" meanSpeed="0.77" meanTimeLoss="18.04" meanOccupancy="37.63" maxOccupancy="94.88" meanMaxJamLengthInVehicles="0.54" meanMaxJamLengthInMeters="3.53" maxJamLengthInVehicles="2" maxJamLengthInMeters="9.90" jamLengthInVehiclesSum="162" jamLengthInMetersSum="1058.46" meanHaltingDuration="33.60" maxHaltingDuration="59.00" haltingDurationSum="168.00" meanIntervalHaltingDuration="33.20" maxIntervalHaltingDuration="59.00" intervalHaltingDurationSum="166.00" startedHalts="4.00" meanVehicleNumber="0.66" maxVehicleNumber="2" />
   <interval begin="600.00" end="900.00" id="LSA9_W_id1" sampledSeconds="103.91" nVehEntered="16" nVehLeft="16" nVehSeen="16" meanSpeed="2.27" meanTimeLoss="5.36" meanOccupancy="13.57" maxOccupancy="80.88" meanMaxJamLengthInVehicles="0.23" meanMaxJamLengthInMeters="1.09" maxJamLengthInVehicles="2" maxJamLengthInMeters="9.59" jamLengthInVehiclesSum="68" jamLengthInMetersSum="327.75" meanHaltingDuration="18.00" maxHaltingDuration="28.00" haltingDurationSum="72.00" meanIntervalHaltingDuration="18.00" maxIntervalHaltingDuration="28.00" intervalHaltingDurationSum="72.00" startedHalts="4.00" meanVehicleNumber="0.40" maxVehicleNumber="2" />
   <interval begin="600.00" end="900.00" id="LSA9_W_id2" sampledSeconds="228.81" nVehEntered="24" nVehLeft="23" nVehSeen="24" meanSpeed="1.53" meanTimeLoss="8.48" meanOccupancy="29.88" maxOccupancy="84.78" meanMaxJamLengthInVehicles="0.54" meanMaxJamLengthInMeters="2.51" maxJamLengthInVehicles="3" maxJamLengthInMeters="10.00" jamLengthInVehiclesSum="162" jamLengthInMetersSum="754.13" meanHaltingDuration="17.20" maxHaltingDuration="35.00" haltingDurationSum="172.00" meanIntervalHaltingDuration="17.20" maxIntervalHaltingDuration="35.00" intervalHaltingDurationSum="172.00" startedHalts="10.00" meanVehicleNumber="0.86" maxVehicleNumber="3" />
   <interval begin="0.00" end="900.00" id="LSA10_E_id3" sampledSeconds="726.10" nVehEntered="45" nVehLeft="45" nVehSeen="45" meanSpeed="2.56" meanTimeLoss="13.10" meanOccupancy="6.70" maxOccupancy="31.80" meanMaxJamLengthInVehicles="0.55" meanMaxJamLengthInMeters="2.63" maxJamLengthInVehicles="3" maxJamLengthInMeters="14.07" jamLengthInVehiclesSum="497" jamLengthInMetersSum="2362.59" meanHaltingDuration="28.61" maxHaltingDuration="48.00" haltingDurationSum="515.00" meanIntervalHaltingDuration="28.61" maxIntervalHaltingDuration="48.00" intervalHaltingDurationSum="515.00" startedHalts="18.00" meanVehicleNumber="0.85" maxVehicleNumber="4" />
   <interval begin="0.00" end="900.00" id="LSA10_E_id4" sampledSeconds="484.99" nVehEntered="24" nVehLeft="24" nVehSeen="24" meanSpeed="2.43" meanTimeLoss="16.69" meanOccupancy="4.47" maxOccupancy="29.29" meanMaxJamLengthInVehicles="0.37" meanMaxJamLengthInMeters="1.74" maxJamLengthInVehicles="3" maxJamLengthInMeters="14.07" jamLengthInVehiclesSum="335" jamLengthInMetersSum="1567.62" meanHaltingDuration="26.77" maxHaltingDuration="46.00" haltingDurationSum="348.00" meanIntervalHaltingDuration="26.77" maxIntervalHaltingDuration="46.00" intervalHaltingDurationSum="348.00" startedHalts="13.00" meanVehicleNumber="0.57" maxVehicleNumber="4" />
   <interval begin="0.00" end="900.00" id="LSA10_NE_id29" sampledSeconds="301.38" nVehEntered="21" nVehLeft="21" nVehSeen="21" meanSpeed="2.05" meanTimeLoss="11.88" meanOccupancy="3.09" maxOccupancy="23.20" meanMaxJamLengthInVehicles="0.25" meanMaxJamLengthInMeters="1.20" maxJamLengthInVehicles="2" maxJamLengthInMeters="10.51" jamLengthInVehiclesSum="221" jamLengthInMetersSum="1076.45" meanHaltingDuration="37.83" maxHaltingDuration="58.00" haltingDurationSum="227.00" meanIntervalHaltingDuration="37.83" maxIntervalHaltingDuration="58.00" intervalHaltingDurationSum="227.00" startedHalts="6.00" meanVehicleNumber="0.36" maxVehicleNumber="2" />
   <interval begin="0.00" end="900.00" id="LSA10_NW_id26" sampledSeconds="243.97" nVehEntered="36" nVehLeft="35" nVehSeen="36" meanSpeed="4.28" meanTimeLoss="4.64" meanOccupancy="2.58" maxOccupancy="29.60" meanMaxJamLengthInVehicles="0.17" meanMaxJamLengthInMeters="0.86" maxJamLengthInVehicles="1" maxJamLengthInMeters="5.80" jamLengthInVehiclesSum="153" jamLengthInMetersSum="773.00" meanHaltingDuration="52.00" maxHaltingDuration="75.00" haltingDurationSum="156.00" meanIntervalHaltingDuration="52.00" maxIntervalHaltingDuration="75.00" intervalHaltingDurationSum="156.00" startedHalts="3.00" meanVehicleNumber="0.31" maxVehicleNumber="3" />
   <interval begin="0.00" end="900.00" id="LSA10_NW_id27" sampledSeconds="645.46" nVehEntered="68" nVehLeft="68" nVehSeen="68" meanSpeed="1.84" meanTimeLoss="8.20" meanOccupancy="5.90" maxOccupancy="41.33" meanMaxJamLengthInVehicles="0.56" meanMaxJamLengthInMeters="2.62" maxJamLengthInVehicles="3" maxJamLengthInMeters="13.67" jamLengthInVehiclesSum="500" jamLengthInMetersSum="2362.05" meanHaltingDuration="51.00" maxHaltingDuration="72.00" haltingDurationSum="510.00" meanIntervalHaltingDuration="51.00" maxIntervalHaltingDuration="72.00" intervalHaltingDurationSum="510.00" startedHalts="10.00" meanVehicleNumber="0.79" maxVehicleNumber="4" />
   <interval begin="0.00" end="900.00" id="LSA10_S_id31" sampledSeconds="763.30" nVehEntered="42" nVehLeft="40" nVehSeen="42" meanSpeed="0.97" meanTimeLoss="16.47" meanOccupancy="6.70" maxOccupancy="18.00" meanMaxJamLengthInVehicles="0.72" meanMaxJamLengthInMeters="3.26" maxJamLengthInVehicles="2" maxJamLengthInMeters="8.93" jamLengthInVehiclesSum="651" jamLengthInMetersSum="2937.36" meanHaltingDuration="47.50" maxHaltingDuration="83.00" haltingDurationSum="665.00" meanIntervalHaltingDuration="47.50" maxIntervalHaltingDuration="83.00" intervalHaltingDurationSum="665.00" startedHalts="14.00" meanVehicleNumber="0.89" maxVehicleNumber="3" />
   <interval begin="0.00" end="900.00" id="LSA10_W_id1" sampledSeconds="900.87" nVehEntered="81" nVehLeft="81" nVehSeen="81" meanSpeed="3.33" meanTimeLoss="8.43" meanOccupancy="8.63" maxOccupancy="32.54" meanMaxJamLengthInVehicles="0.62" meanMaxJamLengthInMeters="3.16" maxJamLengthInVehicles="3" maxJamLengthInMeters="13.74" jamLengthInVehiclesSum="562" jamLengthInMetersSum="2843.50" meanHaltingDuration="24.42" maxHaltingDuration="45.00" haltingDurationSum="586.00" meanIntervalHaltingDuration="24.42" maxIntervalHaltingDuration="45.00" intervalHaltingDurationSum="586.00" startedHalts="24.00" meanVehicleNumber="1.10" maxVehicleNumber="4" />
   <interval begin="0.00" end="900.00" id="LSA16_E_id10" sampledSeconds="432.65" nVehEntered="30" nVehLeft="30" nVehSeen="30" meanSpeed="3.60" meanTimeLoss="10.59" meanOccupancy="4.12" maxOccupancy="38.00" meanMaxJamLengthInVehicles="0.26" meanMaxJamLengthInMeters="1.30" maxJamLengthInVehicles="4" maxJamLengthInMeters="19.66" jamLengthInVehiclesSum="234" jamLengthInMetersSum="1168.28" meanHaltingDuration="17.71" maxHaltingDuration="41.00" haltingDurationSum="248.00" meanIntervalHaltingDuration="17.71" maxIntervalHaltingDuration="41.00" intervalHaltingDurationSum="248.00" startedHalts="14.00" meanVehicleNumber="0.51" maxVehicleNumber="4" />
   <interval begin="0.00" end="900.00" id="LSA16_E_id11" sampledSeconds="455.26" nVehEntered="20" nVehLeft="20" nVehSeen="20" meanSpeed="2.40" meanTimeLoss="18.84" meanOccupancy="4.30" maxOccupancy="33.61" meanMaxJamLengthInVehicles="0.33" meanMaxJamLengthInMeters="1.61" maxJamLengthInVehicles="4" maxJamLengthInMeters="19.66" jamLengthInVehiclesSum="297" jamLengthInMetersSum="1452.35" meanHaltingDuration="22.21" maxHaltingDuration="44.00" haltingDurationSum="311.00" meanIntervalHaltingDuration="22.21" maxIntervalHaltingDuration="44.00" intervalHaltingDurationSum="311.00" startedHalts="14.00" meanVehicleNumber="0.53" maxVehicleNumber="4" />
   <interval begin="0.00" end="900.00" id="LSA16_N_id6" sampledSeconds="166.73" nVehEntered="16" nVehLeft="14" nVehSeen="16" meanSpeed="4.90" meanTimeLoss="6.72" meanOccupancy="1.66" maxOccupancy="18.00" meanMaxJamLengthInVehicles="0.08" meanMaxJamLengthInMeters="0.38" maxJamLengthInVehicles="1" maxJamLengthInMeters="5.80" jamLengthInVehiclesSum="74" jamLengthInMetersSum="342.10" meanHaltingDuration="10.25" maxHaltingDuration="23.00" haltingDurationSum="82.00" meanIntervalHaltingDuration="10.25" maxIntervalHaltingDuration="23.00" intervalHaltingDurationSum="82.00" startedHalts="8.00" meanVehicleNumber="0.20" maxVehicleNumber="2" />
   <interval begin="0.00" end="900.00" id="LSA16_N_id7" sampledSeconds="393.65" nVehEntered="15" nVehLeft="14" nVehSeen="15" meanSpeed="2.05" meanTimeLoss="22.37" meanOccupancy="4.55" maxOccupancy="27.00" meanMaxJamLengthInVehicles="0.32" meanMaxJamLengthInMeters="1.78" maxJamLengthInVehicles="3" maxJamLengthInMeters="16.61" jamLengthInVehiclesSum="286" jamLengthInMetersSum="1604.20" meanHaltingDuration="29.60" maxHaltingDuration="51.00" haltingDurationSum="296.00" meanIntervalHaltingDuration="29.60" maxIntervalHaltingDuration="51.00" intervalHaltingDurationSum="296.00" startedHalts="10.00" meanVehicleNumber="0.45" maxVehicleNumber="3" />
   <interval begin="0.00" end="900.00" id="LSA16_S_id1" sampledSeconds="583.27" nVehEntered="74" nVehLeft="74" nVehSeen="74" meanSpeed="3.69" meanTimeLoss="5.72" meanOccupancy="5.72" maxOccupancy="36.00" meanMaxJamLengthInVehicles="0.38" meanMaxJamLengthInMeters="1.96" maxJamLengthInVehicles="3" maxJamLengthInMeters="16.51" jamLengthInVehiclesSum="343" jamLengthInMetersSum="1761.24" meanHaltingDuration="22.44" maxHaltingDuration="40.00" haltingDurationSum="359.00" meanIntervalHaltingDuration="22.44" maxIntervalHaltingDuration="40.00" intervalHaltingDurationSum="359.00" startedHalts="16.00" meanVehicleNumber="0.73" maxVehicleNumber="4" />
   <interval begin="0.00" end="900.00" id="LSA16_S_id2" sampledSeconds="653.84" nVehEntered="29" nVehLeft="27" nVehSeen="29" meanSpeed="2.24" meanTimeLoss="18.94" meanOccupancy="7.58" maxOccupancy="31.60" meanMaxJamLengthInVehicles="0.52" meanMaxJamLengthInMeters="2.91" maxJamLengthInVehicles="3" maxJamLengthInMeters="17.15" jamLengthInVehiclesSum="465" jamLengthInMetersSum="2622.05" meanHaltingDuration="32.00" maxHaltingDuration="50.00" haltingDurationSum="480.00" meanIntervalHaltingDuration="32.00" maxIntervalHaltingDuration="50.00" intervalHaltingDurationSum="480.00" startedHalts="15.00" meanVehicleNumber="0.75" maxVehicleNumber="3" />
   <interval begin="0.00" end="900.00" id="LSA16_S_id33" sampledSeconds="16.50" nVehEntered="13" nVehLeft="13" nVehSeen="13" meanSpeed="4.27" meanTimeLoss="0.87" meanOccupancy="1.78" maxOccupancy="100.00" meanMaxJamLengthInVehicles="0.00" meanMaxJamLengthInMeters="0.00" maxJamLengthInVehicles="0" maxJamLengthInMeters="0.00" jamLengthInVehiclesSum="0" jamLengthInMetersSum="0.00" meanHaltingDuration="0.00" maxHaltingDuration="0.00" haltingDurationSum="0.00" meanIntervalHaltingDuration="0.00" maxIntervalHaltingDuration="0.00" intervalHaltingDurationSum="0.00" startedHalts="0.00" meanVehicleNumber="0.03" maxVehicleNumber="1" />
   <interval begin="0.00" end="900.00" id="LSA16_W_id4" sampledSeconds="171.45" nVehEntered="6" nVehLeft="6" nVehSeen="6" meanSpeed="0.52" meanTimeLoss="27.53" meanOccupancy="8.85" maxOccupancy="79.18" meanMaxJamLengthInVehicles="0.16" meanMaxJamLengthInMeters="0.79" maxJamLengthInVehicles="2" maxJamLengthInMeters="9.42" jamLengthInVehiclesSum="146" jamLengthInMetersSum="707.46" meanHaltingDuration="30.20" maxHaltingDuration="52.00" haltingDurationSum="151.00" meanIntervalHaltingDuration="30.20" maxIntervalHaltingDuration="52.00" intervalHaltingDurationSum="151.00" startedHalts="5.00" meanVehicleNumber="0.20" maxVehicleNumber="2" />
   <interval begin="0.00" end="900.00" id="LSA1_E_id13" sampledSeconds="436.66" nVehEntered="21" nVehLeft="20" nVehSeen="21" meanSpeed="2.35" meanTimeLoss="17.32" meanOccupancy="3.92" maxOccupancy="29.60" meanMaxJamLengthInVehicles="0.34" meanMaxJamLengthInMeters="1.43" maxJamLengthInVehicles="2" maxJamLengthInMeters="7.92" jamLengthInVehiclesSum="304" jamLengthInMetersSum="1289.56" meanHaltingDuration="26.33" maxHaltingDuration="47.00" haltingDurationSum="316.00" meanIntervalHaltingDuration="26.33" maxIntervalHaltingDuration="47.00" intervalHaltingDurationSum="316.00" startedHalts="12.00" meanVehicleNumber="0.51" maxVehicleNumber="4" />
   <interval begin="0.00" end="900.00" id="LSA1_E_id23" sampledSeconds="618.37" nVehEntered="47" nVehLeft="46" nVehSeen="47" meanSpeed="3.68" meanTimeLoss="9.60" meanOccupancy="5.32" maxOccupancy="32.20" meanMaxJamLengthInVehicles="0.40" meanMaxJamLengthInMeters="1.65" maxJamLengthInVehicles="2" maxJamLengthInMeters="7.92" jamLengthInVehiclesSum="358" jamLengthInMetersSum="1481.15" meanHaltingDuration="22.33" maxHaltingDuration="45.00" haltingDurationSum="335.00" meanIntervalHaltingDuration="22.33" maxIntervalHaltingDuration="45.00" intervalHaltingDurationSum="335.00" startedHalts="19.00" meanVehicleNumber="0.73" maxVehicleNumber="4" />
   <interval begin="0.00" end="900.00" id="LSA1_E_id26" sampledSeconds="1031.19" nVehEntered="38" nVehLeft="38" nVehSeen="38" meanSpeed="1.01" meanTimeLoss="24.82" meanOccupancy="9.13" maxOccupancy="29.60" meanMaxJamLengthInVehicles="0.97" meanMaxJamLengthInMeters="4.39" maxJamLengthInVehicles="2" maxJamLengthInMeters="9.52" jamLengthInVehiclesSum="871" jamLengthInMetersSum="3952.39" meanHaltingDuration="55.44" maxHaltingDuration="76.00" haltingDurationSum="887.00" meanIntervalHaltingDuration="55.44" maxIntervalHaltingDuration="76.00" intervalHaltingDurationSum="887.00" startedHalts="16.00" meanVehicleNumber="1.19" maxVehicleNumber="4" />
   <interval begin="0.00" end="900.00" id="LSA1_E_id27" sampledSeconds="398.69" nVehEntered="81" nVehLeft="81" nVehSeen="81" meanSpeed="8.69" meanTimeLoss="1.46" meanOccupancy="3.91" maxOccupancy="38.56" meanMaxJamLengthInVehicles="0.06" meanMaxJamLengthInMeters="0.25" maxJamLengthInVehicles="2" maxJamLengthInMeters="9.15" jamLengthInVehiclesSum="53" jamLengthInMetersSum="221.77" meanHaltingDuration="7.62" maxHaltingDuration="13.00" haltingDurationSum="61.00" meanIntervalHaltingDuration="7.62" maxIntervalHaltingDuration="13.00" intervalHaltingDurationSum="61.00" startedHalts="8.00" meanVehicleNumber="0.54" maxVehicleNumber="4" />
   <interval begin="0.00" end="900.00" id="LSA1_N_id28_id40" sampledSeconds="659.14" nVehEntered="50" nVehLeft="49" nVehSeen="50" meanSpeed="3.73" meanTimeLoss="9.66" meanOccupancy="7.59" maxOccupancy="43.80" meanMaxJamLengthInVehicles="0.39" meanMaxJamLengthInMeters="2.28" maxJamLengthInVehicles="4" maxJamLengthInMeters="26.94" jamLengthInVehiclesSum="348" jamLengthInMetersSum="2052.14" meanHaltingDuration="14.92" maxHaltingDuration="41.00" haltingDurationSum="373.00" meanIntervalHaltingDuration="14.92" maxIntervalHaltingDuration="41.00" intervalHaltingDurationSum="373.00" startedHalts="25.00" meanVehicleNumber="0.79" maxVehicleNumber="4" />
   <interval begin="0.00" end="900.00" id="LSA1_N_id30" sampledSeconds="1082.48" nVehEntered="47" nVehLeft="45" nVehSeen="47" meanSpeed="2.33" meanTimeLoss="19.18" meanOccupancy="11.33" maxOccupancy="39.44" meanMaxJamLengthInVehicles="0.84" meanMaxJamLengthInMeters="4.69" maxJamLengthInVehicles="5" maxJamLengthInMeters="25.79" jamLengthInVehiclesSum="755" jamLengthInMetersSum="4217.71" meanHaltingDuration="27.03" maxHaltingDuration="47.00" haltingDurationSum="784.00" meanIntervalHaltingDuration="27.03" maxIntervalHaltingDuration="47.00" intervalHaltingDurationSum="784.00" startedHalts="29.00" meanVehicleNumber="1.26" maxVehicleNumber="5" />
   <interval begin="0.00" end="900.00" id="LSA1_W_id7" sampledSeconds="2032.86" nVehEntered="25" nVehLeft="22" nVehSeen="25" meanSpeed="0.60" meanTimeLoss="77.79" meanOccupancy="16.94" maxOccupancy="30.62" meanMaxJamLengthInVehicles="2.03" meanMaxJamLengthInMeters="9.45" maxJamLengthInVehicles="3" maxJamLengthInMeters="14.43" jamLengthInVehiclesSum="1825" jamLengthInMetersSum="8508.68" meanHaltingDuration="63.93" maxHaltingDuration="77.00" haltingDurationSum="1854.00" meanIntervalHaltingDuration="63.93" maxIntervalHaltingDuration="77.00" intervalHaltingDurationSum="1854.00" startedHalts="29.00" meanVehicleNumber="2.29" maxVehicleNumber="4" />
   <interval begin="0.00" end="900.00" id="LSA1_W_id9" sampledSeconds="1137.95" nVehEntered="75" nVehLeft="72" nVehSeen="75" meanSpeed="3.03" meanTimeLoss="11.79" meanOccupancy="10.68" maxOccupancy="36.90" meanMaxJamLengthInVehicles="0.82" meanMaxJamLengthInMeters="4.05" maxJamLengthInVehicles="3" maxJamLengthInMeters="13.64" jamLengthInVehiclesSum="736" jamLengthInMetersSum="3640.78" meanHaltingDuration="28.26" maxHaltingDuration="50.00" haltingDurationSum="763.00" meanIntervalHaltingDuration="28.26" maxIntervalHaltingDuration="50.00" intervalHaltingDurationSum="763.00" startedHalts="27.00" meanVehicleNumber="1.35" maxVehicleNumber="4" />
   <interval begin="0.00" end="900.00" id="LSA9_E_id8" sampledSeconds="723.33" nVehEntered="68" nVehLeft="65" nVehSeen="68" meanSpeed="2.78" meanTimeLoss="8.35" meanOccupancy="7.47" maxOccupancy="31.60" meanMaxJamLengthInVehicles="0.49" meanMaxJamLengthInMeters="2.74" maxJamLengthInVehicles="3" maxJamLengthInMeters="17.03" jamLengthInVehiclesSum="442" jamLengthInMetersSum="2466.46" meanHaltingDuration="18.68" maxHaltingDuration="36.00" haltingDurationSum="467.00" meanIntervalHaltingDuration="18.68" maxIntervalHaltingDuration="36.00" intervalHaltingDurationSum="467.00" startedHalts="26.00" meanVehicleNumber="0.87" maxVehicleNumber="4" />
   <interval begin="0.00" end="900.00" id="LSA9_E_id9" sampledSeconds="387.37" nVehEntered="27" nVehLeft="25" nVehSeen="27" meanSpeed="3.49" meanTimeLoss="10.66" meanOccupancy="4.00" maxOccupancy="30.83" meanMaxJamLengthInVehicles="0.23" meanMaxJamLengthInMeters="1.19" maxJamLengthInVehicles="3" maxJamLengthInMeters="15.78" jamLengthInVehiclesSum="204" jamLengthInMetersSum="1068.16" meanHaltingDuration="13.38" maxHaltingDuration="25.00" haltingDurationSum="214.00" meanIntervalHaltingDuration="13.38" maxIntervalHaltingDuration="25.00" intervalHaltingDurationSum="214.00" startedHalts="17.00" meanVehicleNumber="0.46" maxVehicleNumber="4" />
   <interval begin="0.00" end="900.00" id="LSA9_NE_id4" sampledSeconds="263.54" nVehEntered="11" nVehLeft="11" nVehSeen="11" meanSpeed="1.24" meanTimeLoss="21.48" meanOccupancy="2.85" maxOccupancy="20.60" meanMaxJamLengthInVehicles="0.23" meanMaxJamLengthInMeters="1.21" maxJamLengthInVehicles="2" maxJamLengthInMeters="12.11" jamLengthInVehiclesSum="205" jamLengthInMetersSum="1086.48" meanHaltingDuration="26.62" maxHaltingDuration="57.00" haltingDurationSum="213.00" meanIntervalHaltingDuration="26.62" maxIntervalHaltingDuration="57.00" intervalHaltingDurationSum="213.00" startedHalts="8.00" meanVehicleNumber="0.30" maxVehicleNumber="2" />
   <interval begin="0.00" end="900.00" id="LSA9_NE_id5" sampledSeconds="530.83" nVehEntered="17" nVehLeft="17" nVehSeen="17" meanSpeed="0.96" meanTimeLoss="29.00" meanOccupancy="5.23" maxOccupancy="21.53" meanMaxJamLengthInVehicles="0.49" meanMaxJamLengthInMeters="2.37" maxJamLengthInVehicles="3" maxJamLengthInMeters="13.77" jamLengthInVehiclesSum="440" jamLengthInMetersSum="2133.17" meanHaltingDuration="38.27" maxHaltingDuration="59.00" haltingDurationSum="421.00" meanIntervalHaltingDuration="38.27" maxIntervalHaltingDuration="59.00" intervalHaltingDurationSum="421.00" startedHalts="14.00" meanVehicleNumber="0.60" maxVehicleNumber="3" />
   <interval begin="0.00" end="900.00" id="LSA9_NW_id3" sampledSeconds="2008.03" nVehEntered="60" nVehLeft="57" nVehSeen="60" meanSpeed="1.58" meanTimeLoss="28.24" meanOccupancy="20.55" maxOccupancy="53.28" meanMaxJamLengthInVehicles="1.56" meanMaxJamLengthInMeters="8.58" maxJamLengthInVehicles="5" maxJamLengthInMeters="29.99" jamLengthInVehiclesSum="1405" jamLengthInMetersSum="7733.72" meanHaltingDuration="20.79" maxHaltingDuration="63.00" haltingDurationSum="1476.00" meanIntervalHaltingDuration="20.79" maxIntervalHaltingDuration="63.00" intervalHaltingDurationSum="1476.00" startedHalts="71.00" meanVehicleNumber="2.29" maxVehicleNumber="6" />
   <interval begin="0.00" end="900.00" id="LSA9_S_id10" sampledSeconds="20.15" nVehEntered="30" nVehLeft="30" nVehSeen="30" meanSpeed="12.98" meanTimeLoss="0.03" meanOccupancy="0.15" maxOccupancy="11.60" meanMaxJamLengthInVehicles="0.00" meanMaxJamLengthInMeters="0.00" maxJamLengthInVehicles="0" maxJamLengthInMeters="0.00" jamLengthInVehiclesSum="0" jamLengthInMetersSum="0.00" meanHaltingDuration="0.00" maxHaltingDuration="0.00" haltingDurationSum="0.00" meanIntervalHaltingDuration="0.00" maxIntervalHaltingDuration="0.00" intervalHaltingDurationSum="0.00" startedHalts="0.00" meanVehicleNumber="0.05" maxVehicleNumber="1" />
   <interval begin="900.00" end="1200.00" id="LSA16_W_id3" sampledSeconds="303.35" nVehEntered="14" nVehLeft="12" nVehSeen="14" meanSpeed="0.64" meanTimeLoss="20.67" meanOccupancy="39.09" maxOccupancy="76.01" meanMaxJamLengthInVehicles="0.86" meanMaxJamLengthInMeters="4.09" maxJamLengthInVehicles="2" maxJamLengthInMeters="9.43" jamLengthInVehiclesSum="259" jamLengthInMetersSum="1228.16" meanHaltingDuration="33.38" maxHaltingDuration="59.00" haltingDurationSum="267.00" meanIntervalHaltingDuration="33.38" maxIntervalHaltingDuration="59.00" intervalHaltingDurationSum="267.00" startedHalts="8.00" meanVehicleNumber="1.05" maxVehicleNumber="2" />
   <interval begin="900.00" end="1200.00" id="LSA9_W_id1" sampledSeconds="170.36" nVehEntered="22" nVehLeft="21" nVehSeen="22" meanSpeed="1.80" meanTimeLoss="6.64" meanOccupancy="22.49" maxOccupancy="80.88" meanMaxJamLengthInVehicles="0.42" meanMaxJamLengthInMeters="1.97" maxJamLengthInVehicles="2" maxJamLengthInMeters="9.59" jamLengthInVehiclesSum="125" jamLengthInMetersSum="592.48" meanHaltingDuration="26.00" maxHaltingDuration="39.00" haltingDurationSum="130.00" meanIntervalHaltingDuration="26.00" maxIntervalHaltingDuration="39.00" intervalHaltingDurationSum="130.00" startedHalts="5.00" meanVehicleNumber="0.64" maxVehicleNumber="2" />
   <interval begin="900.00" end="1200.00" id="LSA9_W_id2" sampledSeconds="316.65" nVehEntered="13" nVehLeft="12" nVehSeen="14" meanSpeed="0.54" meanTimeLoss="21.74" meanOccupancy="37.59" maxOccupancy="84.78" meanMaxJamLengthInVehicles="0.90" meanMaxJamLengthInMeters="3.86" maxJamLengthInVehicles="3" maxJamLengthInMeters="10.00" jamLengthInVehiclesSum="271" jamLengthInMetersSum="1157.80" meanHaltingDuration="25.33" maxHaltingDuration="41.00" haltingDurationSum="304.00" meanIntervalHaltingDuration="23.50" maxIntervalHaltingDuration="41.00" intervalHaltingDurationSum="282.00" startedHalts="11.00" meanVehicleNumber="1.10" maxVehicleNumber="3" />
   <interval begin="1200.00" end="1500.00" id="LSA16_W_id3" sampledSeconds="289.92" nVehEntered="10" nVehLeft="12" nVehSeen="12" meanSpeed="0.60" meanTimeLoss="23.09" meanOccupancy="36.34" maxOccupancy="95.88" meanMaxJamLengthInVehicles="0.83" meanMaxJamLengthInMeters="3.87" maxJamLengthInVehicles="2" maxJamLengthInMeters="9.43" jamLengthInVehiclesSum="249" jamLengthInMetersSum="1161.12" meanHaltingDuration="37.50" maxHaltingDuration="58.00" haltingDurationSum="300.00" meanIntervalHaltingDuration="31.88" maxIntervalHaltingDuration="58.00" intervalHaltingDurationSum="255.00" startedHalts="6.00" meanVehicleNumber="0.99" maxVehicleNumber="2" />
   <interval begin="1200.00" end="1500.00" id="LSA9_W_id1" sampledSeconds="115.36" nVehEntered="27" nVehLeft="27" nVehSeen="28" meanSpeed="3.30" meanTimeLoss="3.10" meanOccupancy="15.92" maxOccupancy="86.71" meanMaxJamLengthInVehicles="0.22" meanMaxJamLengthInMeters="1.12" maxJamLengthInVehicles="2" maxJamLengthInMeters="9.59" jamLengthInVehiclesSum="65" jamLengthInMetersSum="337.29" meanHaltingDuration="17.25" maxHaltingDuration="21.00" haltingDurationSum="69.00" meanIntervalHaltingDuration="17.25" maxIntervalHaltingDuration="21.00" intervalHaltingDurationSum="69.00" startedHalts="4.00" meanVehicleNumber="0.46" maxVehicleNumber="2" />