<?xml version="1.0" encoding="UTF-8"?>

<!-- generated on 2026-05-08T12:26:12.100123+01:00 by Eclipse SUMO GUI 1.25.0
<sumoConfiguration xmlns:xsi="http://www.w3.org/2001/XMLSchema-instance" xsi:noNamespaceSchemaLocation="http://sumo.dlr.de/xsd/sumoConfiguration.xsd">

    <input>
        <net-file value="simulation/landau_corridor.net.xml"/>
        <route-files value="C:\Users\mogul\OneDrive\Masaüstü\mt_emre\digital_twin\simulation\weekday_morning_sampled_warmup15.rou.xml"/>
        <additional-files value="C:\Users\mogul\OneDrive\Masaüstü\mt_emre\digital_twin\simulation\traffic_mix.add.xml,C:\Users\mogul\OneDrive\Masaüstü\mt_emre\digital_twin\simulation\Corridor_detectors_e1.add.xml,C:\Users\mogul\OneDrive\Masaüstü\mt_emre\digital_twin\simulation\Corridor_detectors_e2.add.xml,C:\Users\mogul\OneDrive\Masaüstü\mt_emre\digital_twin\simulation\tls_9873_morning.xml,C:\Users\mogul\OneDrive\Masaüstü\mt_emre\digital_twin\simulation\tls_9876_morning.xml,C:\Users\mogul\OneDrive\Masaüstü\mt_emre\digital_twin\simulation\tls_9874_morning.xml,C:\Users\mogul\OneDrive\Masaüstü\mt_emre\digital_twin\simulation\tls_LSA9_morning.xml,C:\Users\mogul\OneDrive\Masaüstü\mt_emre\digital_twin\simulation\tls_9869_morning.xml"/>
    </input>

    <time>
        <begin value="0"/>
        <end value="4500"/>
    </time>

    <traci_server>
        <remote-port value="50068"/>
    </traci_server>

    <gui_only>
        <start value="true"/>
    </gui_only>

</sumoConfiguration>
-->

<detector xmlns:xsi="http://www.w3.org/2001/XMLSchema-instance" xsi:noNamespaceSchemaLocation="http://sumo.dlr.de/xsd/det_e2_file.xsd">
   <interval begin="0.00" end="300.00" id="LSA16_W_id3" sampledSeconds="362.93" nVehEntered="29" nVehLeft="29" nVehSeen="29" meanSpeed="1.21" meanTimeLoss="11.44" meanOccupancy="44.97" maxOccupancy="76.01" meanMaxJamLengthInVehicles="0.97" meanMaxJamLengthInMeters="4.52" maxJamLengthInVehicles="2" maxJamLengthInMeters="9.43" jamLengthInVehiclesSum="290" jamLengthInMetersSum="1356.48" meanHaltingDuration="37.25" maxHaltingDuration="57.00" haltingDurationSum="298.00" meanIntervalHaltingDuration="37.25" maxIntervalHaltingDuration="57.00" intervalHaltingDurationSum="298.00" startedHalts="8.00" meanVehicleNumber="1.31" maxVehicleNumber="2" />
   <interval begin="0.00" end="300.00" id="LSA9_W_id1" sampledSeconds="227.49" nVehEntered="18" nVehLeft="18" nVehSeen="18" meanSpeed="1.16" meanTimeLoss="11.55" meanOccupancy="30.88" maxOccupancy="80.88" meanMaxJamLengthInVehicles="0.64" meanMaxJamLengthInMeters="3.10" maxJamLengthInVehicles="2" maxJamLengthInMeters="9.59" jamLengthInVehiclesSum="191" jamLengthInMetersSum="928.54" meanHaltingDuration="48.75" maxHaltingDuration="56.00" haltingDurationSum="195.00" meanIntervalHaltingDuration="48.75" maxIntervalHaltingDuration="56.00" intervalHaltingDurationSum="195.00" startedHalts="4.00" meanVehicleNumber="0.82" maxVehicleNumber="2" />
   <interval begin="0.00" end="300.00" id="LSA9_W_id2" sampledSeconds="339.70" nVehEntered="13" nVehLeft="13" nVehSeen="13" meanSpeed="0.56" meanTimeLoss="25.10" meanOccupancy="41.70" maxOccupancy="84.78" meanMaxJamLengthInVehicles="0.97" meanMaxJamLengthInMeters="4.36" maxJamLengthInVehicles="3" maxJamLengthInMeters="10.00" jamLengthInVehiclesSum="292" jamLengthInMetersSum="1309.35" meanHaltingDuration="23.46" maxHaltingDuration="56.00" haltingDurationSum="305.00" meanIntervalHaltingDuration="23.46" maxIntervalHaltingDuration="56.00" intervalHaltingDurationSum="305.00" startedHalts="13.00" meanVehicleNumber="1.17" maxVehicleNumber="3" />
   <interval begin="300.00" end="600.00" id="LSA16_W_id3" sampledSeconds="376.06" nVehEntered="25" nVehLeft="24" nVehSeen="25" meanSpeed="0.99" meanTimeLoss="13.96" meanOccupancy="52.57" maxOccupancy="90.40" meanMaxJamLengthInVehicles="1.05" meanMaxJamLengthInMeters="5.39" maxJamLengthInVehicles="2" maxJamLengthInMeters="9.43" jamLengthInVehiclesSum="316" jamLengthInMetersSum="1616.41" meanHaltingDuration="46.14" maxHaltingDuration="55.00" haltingDurationSum="323.00" meanIntervalHaltingDuration="46.14" maxIntervalHaltingDuration="55.00" intervalHaltingDurationSum="323.00" startedHalts="7.00" meanVehicleNumber="1.34" maxVehicleNumber="2" />
   <interval begin="300.00" end="600.00" id="LSA9_W_id1" sampledSeconds="432.30" nVehEntered="32" nVehLeft="32" nVehSeen="32" meanSpeed="1.09" meanTimeLoss="12.39" meanOccupancy="57.21" maxOccupancy="99.48" meanMaxJamLengthInVehicles="1.21" meanMaxJamLengthInMeters="5.80" maxJamLengthInVehicles="2" maxJamLengthInMeters="9.59" jamLengthInVehiclesSum="364" jamLengthInMetersSum="1741.40" meanHaltingDuration="61.67" maxHaltingDuration="64.00" haltingDurationSum="370.00" meanIntervalHaltingDuration="61.67" maxIntervalHaltingDuration="64.00" intervalHaltingDurationSum="370.00" startedHalts="6.00" meanVehicleNumber="1.56" maxVehicleNumber="2" />
   <interval begin="300.00" end="600.00" id="LSA9_W_id2" sampledSeconds="538.20" nVehEntered="23" nVehLeft="21" nVehSeen="23" meanSpeed="0.59" meanTimeLoss="22.41" meanOccupancy="68.40" maxOccupancy="84.99" meanMaxJamLengthInVehicles="1.61" meanMaxJamLengthInMeters="7.38" maxJamLengthInVehicles="3" maxJamLengthInMeters="10.00" jamLengthInVehiclesSum="484" jamLengthInMetersSum="2212.62" meanHaltingDuration="37.92" maxHaltingDuration="66.00" haltingDurationSum="493.00" meanIntervalHaltingDuration="37.92" maxIntervalHaltingDuration="66.00" intervalHaltingDurationSum="493.00" startedHalts="14.00" meanVehicleNumber="1.86" maxVehicleNumber="3" />
   <interval begin="600.00" end="900.00" id="LSA16_W_id3" sampledSeconds="323.41" nVehEntered="23" nVehLeft="23" nVehSeen="24" meanSpeed="1.11" meanTimeLoss="12.39" meanOccupancy="50.88" maxOccupancy="95.26" meanMaxJamLengthInVehicles="0.87" meanMaxJamLengthInMeters="5.02" maxJamLengthInVehicles="2" maxJamLengthInMeters="9.94" jamLengthInVehiclesSum="261" jamLengthInMetersSum="1505.21" meanHaltingDuration="48.67" maxHaltingDuration="57.00" haltingDurationSum="292.00" meanIntervalHaltingDuration="44.33" maxIntervalHaltingDuration="55.00" intervalHaltingDurationSum="266.00" startedHalts="5.00" meanVehicleNumber="1.14" maxVehicleNumber="2" />
   <interval begin="600.00" end="900.00" id="LSA9_W_id1" sampledSeconds="278.27" nVehEntered="23" nVehLeft="23" nVehSeen="23" meanSpeed="1.25" meanTimeLoss="10.95" meanOccupancy="36.85" maxOccupancy="84.87" meanMaxJamLengthInVehicles="0.77" meanMaxJamLengthInMeters="3.70" maxJamLengthInVehicles="2" maxJamLengthInMeters="9.59" jamLengthInVehiclesSum="232" jamLengthInMetersSum="1108.73" meanHaltingDuration="59.00" maxHaltingDuration="61.00" haltingDurationSum="236.00" meanIntervalHaltingDuration="59.00" maxIntervalHaltingDuration="61.00" intervalHaltingDurationSum="236.00" startedHalts="4.00" meanVehicleNumber="1.00" maxVehicleNumber="2" />
   <interval begin="600.00" end="900.00" id="LSA9_W_id2" sampledSeconds="460.56" nVehEntered="23" nVehLeft="23" nVehSeen="25" meanSpeed="0.74" meanTimeLoss="17.44" meanOccupancy="60.63" maxOccupancy="88.94" meanMaxJamLengthInVehicles="1.32" meanMaxJamLengthInMeters="6.17" maxJamLengthInVehicles="2" maxJamLengthInMeters="9.98" jamLengthInVehiclesSum="396" jamLengthInMetersSum="1850.78" meanHaltingDuration="28.80" maxHaltingDuration="65.00" haltingDurationSum="432.00" meanIntervalHaltingDuration="27.07" maxIntervalHaltingDuration="65.00" intervalHaltingDurationSum="406.00" startedHalts="15.00" meanVehicleNumber="1.62" maxVehicleNumber="3" />
   <interval begin="0.00" end="900.00" id="LSA10_E_id3" sampledSeconds="450.94" nVehEntered="41" nVehLeft="41" nVehSeen="41" meanSpeed="3.99" meanTimeLoss="7.83" meanOccupancy="4.42" maxOccupancy="41.07" meanMaxJamLengthInVehicles="0.25" meanMaxJamLengthInMeters="1.34" maxJamLengthInVehicles="3" maxJamLengthInMeters="14.07" jamLengthInVehiclesSum="227" jamLengthInMetersSum="1202.62" meanHaltingDuration="26.22" maxHaltingDuration="36.00" haltingDurationSum="236.00" meanIntervalHaltingDuration="26.22" maxIntervalHaltingDuration="36.00" intervalHaltingDurationSum="236.00" startedHalts="9.00" meanVehicleNumber="0.54" maxVehicleNumber="5" />
   <interval begin="0.00" end="900.00" id="LSA10_E_id4" sampledSeconds="564.31" nVehEntered="45" nVehLeft="45" nVehSeen="45" meanSpeed="3.43" meanTimeLoss="9.43" meanOccupancy="5.22" maxOccupancy="31.13" meanMaxJamLengthInVehicles="0.38" meanMaxJamLengthInMeters="1.90" maxJamLengthInVehicles="3" maxJamLengthInMeters="14.07" jamLengthInVehiclesSum="345" jamLengthInMetersSum="1705.71" meanHaltingDuration="25.64" maxHaltingDuration="47.00" haltingDurationSum="359.00" meanIntervalHaltingDuration="25.64" maxIntervalHaltingDuration="47.00" intervalHaltingDurationSum="359.00" startedHalts="14.00" meanVehicleNumber="0.67" maxVehicleNumber="4" />
   <interval begin="0.00" end="900.00" id="LSA10_NE_id29" sampledSeconds="444.78" nVehEntered="11" nVehLeft="9" nVehSeen="11" meanSpeed="1.19" meanTimeLoss="36.18" meanOccupancy="4.70" maxOccupancy="38.60" meanMaxJamLengthInVehicles="0.39" meanMaxJamLengthInMeters="1.97" maxJamLengthInVehicles="4" maxJamLengthInMeters="20.08" jamLengthInVehiclesSum="353" jamLengthInMetersSum="1770.04" meanHaltingDuration="33.09" maxHaltingDuration="63.00" haltingDurationSum="364.00" meanIntervalHaltingDuration="33.09" maxIntervalHaltingDuration="63.00" intervalHaltingDurationSum="364.00" startedHalts="11.00" meanVehicleNumber="0.50" maxVehicleNumber="4" />
   <interval begin="0.00" end="900.00" id="LSA10_NW_id26" sampledSeconds="392.84" nVehEntered="48" nVehLeft="47" nVehSeen="48" meanSpeed="3.36" meanTimeLoss="6.13" meanOccupancy="4.64" maxOccupancy="38.00" meanMaxJamLengthInVehicles="0.27" meanMaxJamLengthInMeters="1.60" maxJamLengthInVehicles="1" maxJamLengthInMeters="10.00" jamLengthInVehiclesSum="246" jamLengthInMetersSum="1442.26" meanHaltingDuration="36.14" maxHaltingDuration="65.00" haltingDurationSum="253.00" meanIntervalHaltingDuration="36.14" maxIntervalHaltingDuration="65.00" intervalHaltingDurationSum="253.00" startedHalts="7.00" meanVehicleNumber="0.48" maxVehicleNumber="4" />
   <interval begin="0.00" end="900.00" id="LSA10_NW_id27" sampledSeconds="879.60" nVehEntered="76" nVehLeft="75" nVehSeen="76" meanSpeed="1.40" meanTimeLoss="10.39" meanOccupancy="8.78" maxOccupancy="32.09" meanMaxJamLengthInVehicles="0.80" meanMaxJamLengthInMeters="3.92" maxJamLengthInVehicles="3" maxJamLengthInMeters="13.67" jamLengthInVehiclesSum="720" jamLengthInMetersSum="3528.18" meanHaltingDuration="49.00" maxHaltingDuration="70.00" haltingDurationSum="735.00" meanIntervalHaltingDuration="49.00" maxIntervalHaltingDuration="70.00" intervalHaltingDurationSum="735.00" startedHalts="15.00" meanVehicleNumber="1.05" maxVehicleNumber="4" />
   <interval begin="0.00" end="900.00" id="LSA10_S_id31" sampledSeconds="698.94" nVehEntered="53" nVehLeft="53" nVehSeen="53" meanSpeed="1.86" meanTimeLoss="11.13" meanOccupancy="7.16" maxOccupancy="26.86" meanMaxJamLengthInVehicles="0.60" meanMaxJamLengthInMeters="3.02" maxJamLengthInVehicles="2" maxJamLengthInMeters="9.73" jamLengthInVehiclesSum="540" jamLengthInMetersSum="2720.68" meanHaltingDuration="42.54" maxHaltingDuration="74.00" haltingDurationSum="553.00" meanIntervalHaltingDuration="42.54" maxIntervalHaltingDuration="74.00" intervalHaltingDurationSum="553.00" startedHalts="13.00" meanVehicleNumber="0.83" maxVehicleNumber="4" />
   <interval begin="0.00" end="900.00" id="LSA10_W_id1" sampledSeconds="1712.93" nVehEntered="136" nVehLeft="136" nVehSeen="136" meanSpeed="2.78" meanTimeLoss="10.07" meanOccupancy="15.44" maxOccupancy="40.00" meanMaxJamLengthInVehicles="1.32" meanMaxJamLengthInMeters="6.46" maxJamLengthInVehicles="3" maxJamLengthInMeters="14.87" jamLengthInVehiclesSum="1189" jamLengthInMetersSum="5809.56" meanHaltingDuration="43.46" maxHaltingDuration="46.00" haltingDurationSum="1217.00" meanIntervalHaltingDuration="43.46" maxIntervalHaltingDuration="46.00" intervalHaltingDurationSum="1217.00" startedHalts="28.00" meanVehicleNumber="2.04" maxVehicleNumber="5" />
   <interval begin="0.00" end="900.00" id="LSA16_E_id10" sampledSeconds="204.30" nVehEntered="41" nVehLeft="41" nVehSeen="41" meanSpeed="9.98" meanTimeLoss="1.31" meanOccupancy="1.98" maxOccupancy="40.60" meanMaxJamLengthInVehicles="0.01" meanMaxJamLengthInMeters="0.06" maxJamLengthInVehicles="1" maxJamLengthInMeters="4.50" jamLengthInVehiclesSum="11" jamLengthInMetersSum="49.50" meanHaltingDuration="6.50" maxHaltingDuration="7.00" haltingDurationSum="13.00" meanIntervalHaltingDuration="6.50" maxIntervalHaltingDuration="7.00" intervalHaltingDurationSum="13.00" startedHalts="2.00" meanVehicleNumber="0.27" maxVehicleNumber="4" />
   <interval begin="0.00" end="900.00" id="LSA16_E_id11" sampledSeconds="546.07" nVehEntered="36" nVehLeft="36" nVehSeen="36" meanSpeed="3.61" meanTimeLoss="11.20" meanOccupancy="5.66" maxOccupancy="36.00" meanMaxJamLengthInVehicles="0.32" meanMaxJamLengthInMeters="1.70" maxJamLengthInVehicles="4" maxJamLengthInMeters="22.51" jamLengthInVehiclesSum="290" jamLengthInMetersSum="1528.23" meanHaltingDuration="14.18" maxHaltingDuration="35.00" haltingDurationSum="312.00" meanIntervalHaltingDuration="14.18" maxIntervalHaltingDuration="35.00" intervalHaltingDurationSum="312.00" startedHalts="22.00" meanVehicleNumber="0.65" maxVehicleNumber="4" />
   <interval begin="0.00" end="900.00" id="LSA16_N_id6" sampledSeconds="641.84" nVehEntered="22" nVehLeft="21" nVehSeen="22" meanSpeed="1.85" meanTimeLoss="25.15" meanOccupancy="6.45" maxOccupancy="36.00" meanMaxJamLengthInVehicles="0.53" meanMaxJamLengthInMeters="2.59" maxJamLengthInVehicles="4" maxJamLengthInMeters="22.50" jamLengthInVehiclesSum="476" jamLengthInMetersSum="2327.19" meanHaltingDuration="30.75" maxHaltingDuration="62.00" haltingDurationSum="492.00" meanIntervalHaltingDuration="30.75" maxIntervalHaltingDuration="62.00" intervalHaltingDurationSum="492.00" startedHalts="16.00" meanVehicleNumber="0.74" maxVehicleNumber="4" />
   <interval begin="0.00" end="900.00" id="LSA16_N_id7" sampledSeconds="928.19" nVehEntered="29" nVehLeft="29" nVehSeen="29" meanSpeed="1.73" meanTimeLoss="27.93" meanOccupancy="10.66" maxOccupancy="47.00" meanMaxJamLengthInVehicles="0.76" meanMaxJamLengthInMeters="4.53" maxJamLengthInVehicles="4" maxJamLengthInMeters="29.12" jamLengthInVehiclesSum="683" jamLengthInMetersSum="4074.98" meanHaltingDuration="30.70" maxHaltingDuration="49.00" haltingDurationSum="706.00" meanIntervalHaltingDuration="30.70" maxIntervalHaltingDuration="49.00" intervalHaltingDurationSum="706.00" startedHalts="23.00" meanVehicleNumber="1.06" maxVehicleNumber="5" />
   <interval begin="0.00" end="900.00" id="LSA16_S_id1" sampledSeconds="1333.32" nVehEntered="116" nVehLeft="114" nVehSeen="116" meanSpeed="2.14" meanTimeLoss="9.69" meanOccupancy="14.79" maxOccupancy="49.00" meanMaxJamLengthInVehicles="1.07" meanMaxJamLengthInMeters="7.56" maxJamLengthInVehicles="4" maxJamLengthInMeters="50.00" jamLengthInVehiclesSum="963" jamLengthInMetersSum="6804.74" meanHaltingDuration="34.21" maxHaltingDuration="79.00" haltingDurationSum="992.00" meanIntervalHaltingDuration="34.21" maxIntervalHaltingDuration="79.00" intervalHaltingDurationSum="992.00" startedHalts="29.00" meanVehicleNumber="1.60" maxVehicleNumber="4" />
   <interval begin="0.00" end="900.00" id="LSA16_S_id2" sampledSeconds="929.36" nVehEntered="34" nVehLeft="33" nVehSeen="34" meanSpeed="1.84" meanTimeLoss="23.72" meanOccupancy="9.64" maxOccupancy="33.69" meanMaxJamLengthInVehicles="0.78" meanMaxJamLengthInMeters="4.09" maxJamLengthInVehicles="3" maxJamLengthInMeters="17.51" jamLengthInVehiclesSum="698" jamLengthInMetersSum="3683.58" meanHaltingDuration="34.24" maxHaltingDuration="61.00" haltingDurationSum="719.00" meanIntervalHaltingDuration="34.24" maxIntervalHaltingDuration="61.00" intervalHaltingDurationSum="719.00" startedHalts="23.00" meanVehicleNumber="1.06" maxVehicleNumber="4" />
   <interval begin="0.00" end="900.00" id="LSA16_S_id33" sampledSeconds="21.18" nVehEntered="20" nVehLeft="20" nVehSeen="20" meanSpeed="4.73" meanTimeLoss="0.69" meanOccupancy="1.73" maxOccupancy="100.00" meanMaxJamLengthInVehicles="0.00" meanMaxJamLengthInMeters="0.00" maxJamLengthInVehicles="0" maxJamLengthInMeters="0.00" jamLengthInVehiclesSum="0" jamLengthInMetersSum="0.00" meanHaltingDuration="1.00" maxHaltingDuration="1.00" haltingDurationSum="1.00" meanIntervalHaltingDuration="1.00" maxIntervalHaltingDuration="1.00" intervalHaltingDurationSum="1.00" startedHalts="1.00" meanVehicleNumber="0.04" maxVehicleNumber="1" />
   <interval begin="0.00" end="900.00" id="LSA16_W_id4" sampledSeconds="146.05" nVehEntered="5" nVehLeft="5" nVehSeen="5" meanSpeed="0.50" meanTimeLoss="28.14" meanOccupancy="6.67" maxOccupancy="79.18" meanMaxJamLengthInVehicles="0.14" meanMaxJamLengthInMeters="0.66" maxJamLengthInVehicles="2" maxJamLengthInMeters="9.42" jamLengthInVehiclesSum="128" jamLengthInMetersSum="590.84" meanHaltingDuration="33.00" maxHaltingDuration="43.00" haltingDurationSum="132.00" meanIntervalHaltingDuration="33.00" maxIntervalHaltingDuration="43.00" intervalHaltingDurationSum="132.00" startedHalts="4.00" meanVehicleNumber="0.17" maxVehicleNumber="2" />
   <interval begin="0.00" end="900.00" id="LSA1_E_id13" sampledSeconds="680.71" nVehEntered="37" nVehLeft="35" nVehSeen="37" meanSpeed="2.77" meanTimeLoss="14.71" meanOccupancy="5.96" maxOccupancy="31.60" meanMaxJamLengthInVehicles="0.51" meanMaxJamLengthInMeters="2.12" maxJamLengthInVehicles="2" maxJamLengthInMeters="7.92" jamLengthInVehiclesSum="457" jamLengthInMetersSum="1911.95" meanHaltingDuration="27.88" maxHaltingDuration="43.00" haltingDurationSum="474.00" meanIntervalHaltingDuration="27.88" maxIntervalHaltingDuration="43.00" intervalHaltingDurationSum="474.00" startedHalts="17.00" meanVehicleNumber="0.79" maxVehicleNumber="3" />
   <interval begin="0.00" end="900.00" id="LSA1_E_id23" sampledSeconds="752.21" nVehEntered="63" nVehLeft="61" nVehSeen="63" meanSpeed="4.09" meanTimeLoss="8.43" meanOccupancy="6.34" maxOccupancy="32.20" meanMaxJamLengthInVehicles="0.48" meanMaxJamLengthInMeters="1.93" maxJamLengthInVehicles="2" maxJamLengthInMeters="7.92" jamLengthInVehiclesSum="431" jamLengthInMetersSum="1740.58" meanHaltingDuration="26.75" maxHaltingDuration="46.00" haltingDurationSum="428.00" meanIntervalHaltingDuration="26.75" maxIntervalHaltingDuration="46.00" intervalHaltingDurationSum="428.00" startedHalts="19.00" meanVehicleNumber="0.90" maxVehicleNumber="4" />
   <interval begin="0.00" end="900.00" id="LSA1_E_id26" sampledSeconds="1249.09" nVehEntered="88" nVehLeft="86" nVehSeen="88" meanSpeed="2.00" meanTimeLoss="11.80" meanOccupancy="12.12" maxOccupancy="38.00" meanMaxJamLengthInVehicles="1.00" meanMaxJamLengthInMeters="4.98" maxJamLengthInVehicles="2" maxJamLengthInMeters="10.00" jamLengthInVehiclesSum="899" jamLengthInMetersSum="4486.29" meanHaltingDuration="45.95" maxHaltingDuration="72.00" haltingDurationSum="919.00" meanIntervalHaltingDuration="45.95" maxIntervalHaltingDuration="72.00" intervalHaltingDurationSum="919.00" startedHalts="20.00" meanVehicleNumber="1.48" maxVehicleNumber="4" />
   <interval begin="0.00" end="900.00" id="LSA1_E_id27" sampledSeconds="397.75" nVehEntered="89" nVehLeft="89" nVehSeen="89" meanSpeed="8.71" meanTimeLoss="1.36" meanOccupancy="3.70" maxOccupancy="32.84" meanMaxJamLengthInVehicles="0.06" meanMaxJamLengthInMeters="0.25" maxJamLengthInVehicles="2" maxJamLengthInMeters="7.92" jamLengthInVehiclesSum="54" jamLengthInMetersSum="220.98" meanHaltingDuration="7.75" maxHaltingDuration="17.00" haltingDurationSum="62.00" meanIntervalHaltingDuration="7.75" maxIntervalHaltingDuration="17.00" intervalHaltingDurationSum="62.00" startedHalts="8.00" meanVehicleNumber="0.54" maxVehicleNumber="4" />
   <interval begin="0.00" end="900.00" id="LSA1_N_id28_id40" sampledSeconds="426.65" nVehEntered="44" nVehLeft="44" nVehSeen="44" meanSpeed="3.56" meanTimeLoss="7.19" meanOccupancy="4.25" maxOccupancy="29.28" meanMaxJamLengthInVehicles="0.28" meanMaxJamLengthInMeters="1.69" maxJamLengthInVehicles="4" maxJamLengthInMeters="25.79" jamLengthInVehiclesSum="248" jamLengthInMetersSum="1521.27" meanHaltingDuration="20.08" maxHaltingDuration="38.00" haltingDurationSum="261.00" meanIntervalHaltingDuration="20.08" maxIntervalHaltingDuration="38.00" intervalHaltingDurationSum="261.00" startedHalts="13.00" meanVehicleNumber="0.52" maxVehicleNumber="4" />
   <interval begin="0.00" end="900.00" id="LSA1_N_id30" sampledSeconds="2097.71" nVehEntered="77" nVehLeft="76" nVehSeen="77" meanSpeed="2.01" meanTimeLoss="23.29" meanOccupancy="20.61" maxOccupancy="46.85" meanMaxJamLengthInVehicles="1.72" meanMaxJamLengthInMeters="9.27" maxJamLengthInVehicles="5" maxJamLengthInMeters="26.94" jamLengthInVehiclesSum="1551" jamLengthInMetersSum="8338.92" meanHaltingDuration="36.25" maxHaltingDuration="57.00" haltingDurationSum="1595.00" meanIntervalHaltingDuration="36.25" maxIntervalHaltingDuration="57.00" intervalHaltingDurationSum="1595.00" startedHalts="44.00" meanVehicleNumber="2.42" maxVehicleNumber="5" />
   <interval begin="0.00" end="900.00" id="LSA1_W_id7" sampledSeconds="1271.29" nVehEntered="34" nVehLeft="32" nVehSeen="34" meanSpeed="1.41" meanTimeLoss="33.61" meanOccupancy="13.13" maxOccupancy="48.42" meanMaxJamLengthInVehicles="1.13" meanMaxJamLengthInMeters="6.20" maxJamLengthInVehicles="3" maxJamLengthInMeters="14.80" jamLengthInVehiclesSum="1013" jamLengthInMetersSum="5583.67" meanHaltingDuration="47.05" maxHaltingDuration="72.00" haltingDurationSum="1035.00" meanIntervalHaltingDuration="47.05" maxIntervalHaltingDuration="72.00" intervalHaltingDurationSum="1035.00" startedHalts="22.00" meanVehicleNumber="1.45" maxVehicleNumber="4" />
   <interval begin="0.00" end="900.00" id="LSA1_W_id9" sampledSeconds="1296.83" nVehEntered="70" nVehLeft="67" nVehSeen="70" meanSpeed="2.20" meanTimeLoss="15.54" meanOccupancy="11.09" maxOccupancy="40.00" meanMaxJamLengthInVehicles="1.05" meanMaxJamLengthInMeters="4.81" maxJamLengthInVehicles="3" maxJamLengthInMeters="13.64" jamLengthInVehiclesSum="945" jamLengthInMetersSum="4325.60" meanHaltingDuration="33.59" maxHaltingDuration="44.00" haltingDurationSum="974.00" meanIntervalHaltingDuration="33.59" maxIntervalHaltingDuration="44.00" intervalHaltingDurationSum="974.00" startedHalts="29.00" meanVehicleNumber="1.52" maxVehicleNumber="4" />
   <interval begin="0.00" end="900.00" id="LSA9_E_id8" sampledSeconds="1608.38" nVehEntered="61" nVehLeft="58" nVehSeen="61" meanSpeed="1.06" meanTimeLoss="24.17" meanOccupancy="15.27" maxOccupancy="32.66" meanMaxJamLengthInVehicles="1.50" meanMaxJamLengthInMeters="7.88" maxJamLengthInVehicles="3" maxJamLengthInMeters="16.78" jamLengthInVehiclesSum="1349" jamLengthInMetersSum="7092.24" meanHaltingDuration="57.21" maxHaltingDuration="83.00" haltingDurationSum="1373.00" meanIntervalHaltingDuration="57.21" maxIntervalHaltingDuration="83.00" intervalHaltingDurationSum="1373.00" startedHalts="24.00" meanVehicleNumber="1.85" maxVehicleNumber="4" />
   <interval begin="0.00" end="900.00" id="LSA9_E_id9" sampledSeconds="1314.25" nVehEntered="44" nVehLeft="41" nVehSeen="44" meanSpeed="1.66" meanTimeLoss="26.32" meanOccupancy="13.60" maxOccupancy="42.26" meanMaxJamLengthInVehicles="1.15" meanMaxJamLengthInMeters="6.42" maxJamLengthInVehicles="3" maxJamLengthInMeters="16.85" jamLengthInVehiclesSum="1034" jamLengthInMetersSum="5775.11" meanHaltingDuration="50.19" maxHaltingDuration="83.00" haltingDurationSum="1054.00" meanIntervalHaltingDuration="50.19" maxIntervalHaltingDuration="83.00" intervalHaltingDurationSum="1054.00" startedHalts="22.00" meanVehicleNumber="1.51" maxVehicleNumber="5" />
   <interval begin="0.00" end="900.00" id="LSA9_NE_id4" sampledSeconds="336.24" nVehEntered="9" nVehLeft="9" nVehSeen="9" meanSpeed="0.84" meanTimeLoss="34.81" meanOccupancy="3.19" maxOccupancy="23.31" meanMaxJamLengthInVehicles="0.32" meanMaxJamLengthInMeters="1.46" maxJamLengthInVehicles="3" maxJamLengthInMeters="13.77" jamLengthInVehiclesSum="287" jamLengthInMetersSum="1318.23" meanHaltingDuration="42.00" maxHaltingDuration="77.00" haltingDurationSum="294.00" meanIntervalHaltingDuration="42.00" maxIntervalHaltingDuration="77.00" intervalHaltingDurationSum="294.00" startedHalts="7.00" meanVehicleNumber="0.38" maxVehicleNumber="3" />
   <interval begin="0.00" end="900.00" id="LSA9_NE_id5" sampledSeconds="326.40" nVehEntered="9" nVehLeft="9" nVehSeen="9" meanSpeed="0.69" meanTimeLoss="34.33" meanOccupancy="3.09" maxOccupancy="21.53" meanMaxJamLengthInVehicles="0.31" meanMaxJamLengthInMeters="1.49" maxJamLengthInVehicles="3" maxJamLengthInMeters="13.77" jamLengthInVehiclesSum="280" jamLengthInMetersSum="1342.41" meanHaltingDuration="41.00" maxHaltingDuration="71.00" haltingDurationSum="287.00" meanIntervalHaltingDuration="41.00" maxIntervalHaltingDuration="71.00" intervalHaltingDurationSum="287.00" startedHalts="8.00" meanVehicleNumber="0.37" maxVehicleNumber="3" />
   <interval begin="0.00" end="900.00" id="LSA9_NW_id3" sampledSeconds="3224.08" nVehEntered="49" nVehLeft="45" nVehSeen="49" meanSpeed="0.78" meanTimeLoss="60.68" meanOccupancy="30.68" maxOccupancy="51.28" meanMaxJamLengthInVehicles="2.94" meanMaxJamLengthInMeters="15.68" maxJamLengthInVehicles="4" maxJamLengthInMeters="22.52" jamLengthInVehiclesSum="2645" jamLengthInMetersSum="14107.87" meanHaltingDuration="31.40" maxHaltingDuration="81.00" haltingDurationSum="2732.00" meanIntervalHaltingDuration="31.40" maxIntervalHaltingDuration="81.00" intervalHaltingDurationSum="2732.00" startedHalts="87.00" meanVehicleNumber="3.64" maxVehicleNumber="6" />
   <interval begin="0.00" end="900.00" id="LSA9_S_id10" sampledSeconds="151.27" nVehEntered="42" nVehLeft="42" nVehSeen="42" meanSpeed="3.06" meanTimeLoss="2.74" meanOccupancy="1.47" maxOccupancy="18.00" meanMaxJamLengthInVehicles="0.12" meanMaxJamLengthInMeters="0.53" maxJamLengthInVehicles="1" maxJamLengthInMeters="4.50" jamLengthInVehiclesSum="105" jamLengthInMetersSum="472.50" meanHaltingDuration="53.50" maxHaltingDuration="87.00" haltingDurationSum="107.00" meanIntervalHaltingDuration="53.50" maxIntervalHaltingDuration="87.00" intervalHaltingDurationSum="107.00" startedHalts="2.00" meanVehicleNumber="0.22" maxVehicleNumber="3" />
   <interval begin="900.00" end="1200.00" id="LSA16_W_id3" sampledSeconds="327.89" nVehEntered="32" nVehLeft="31" nVehSeen="33" meanSpeed="1.44" meanTimeLoss="8.90" meanOccupancy="41.50" maxOccupancy="76.01" meanMaxJamLengthInVehicles="0.87" meanMaxJamLengthInMeters="4.12" maxJamLengthInVehicles="2" maxJamLengthInMeters="9.43" jamLengthInVehiclesSum="262" jamLengthInMetersSum="1234.67" meanHaltingDuration="33.75" maxHaltingDuration="56.00" haltingDurationSum="270.00" meanIntervalHaltingDuration="33.75" maxIntervalHaltingDuration="56.00" intervalHaltingDurationSum="270.00" startedHalts="8.00" meanVehicleNumber="1.19" maxVehicleNumber="2" />
   <interval begin="900.00" end="1200.00" id="LSA9_W_id1" sampledSeconds="239.01" nVehEntered="39" nVehLeft="37" nVehSeen="39" meanSpeed="2.34" meanTimeLoss="4.98" meanOccupancy="31.14" maxOccupancy="83.61" meanMaxJamLengthInVehicles="0.59" meanMaxJamLengthInMeters="2.83" maxJamLengthInVehicles="2" maxJamLengthInMeters="9.59" jamLengthInVehiclesSum="177" jamLengthInMetersSum="847.54" meanHaltingDuration="45.25" maxHaltingDuration="60.00" haltingDurationSum="181.00" meanIntervalHaltingDuration="45.25" maxIntervalHaltingDuration="60.00" intervalHaltingDurationSum="181.00" startedHalts="4.00" meanVehicleNumber="0.92" maxVehicleNumber="2" />
   <interval begin="900.00" end="1200.00" id="LSA9_W_id2" sampledSeconds="483.93" nVehEntered="26" nVehLeft="26" nVehSeen="28" meanSpeed="0.81" meanTimeLoss="16.28" meanOccupancy="58.54" maxOccupancy="84.99" meanMaxJamLengthInVehicles="1.37" meanMaxJamLengthInMeters="6.06" maxJamLengthInVehicles="3" maxJamLengthInMeters="10.00" jamLengthInVehiclesSum="410" jamLengthInMetersSum="1816.94" meanHaltingDuration="29.23" maxHaltingDuration="65.00" haltingDurationSum="497.00" meanIntervalHaltingDuration="25.00" maxIntervalHaltingDuration="65.00" intervalHaltingDurationSum="425.00" startedHalts="15.00" meanVehicleNumber="1.71" maxVehicleNumber="3" />
   <interval begin="1200.00" end="1500.00" id="LSA16_W_id3" sampledSeconds="387.79" nVehEntered="23" nVehLeft="23" nVehSeen="25" meanSpeed="0.94" meanTimeLoss="14.45" meanOccupancy="46.75" maxOccupancy="89.30" meanMaxJamLengthInVehicles="1.10" meanMaxJamLengthInMeters="5.17" maxJamLengthInVehicles="2" maxJamLengthInMeters="9.43" jamLengthInVehiclesSum="331" jamLengthInMetersSum="1552.23" meanHaltingDuration="44.00" maxHaltingDuration="51.00" haltingDurationSum="352.00" meanIntervalHaltingDuration="42.12" maxIntervalHaltingDuration="48.00" intervalHaltingDurationSum="337.00" startedHalts="6.00" meanVehicleNumber="1.37" maxVehicleNumber="2" />
   <interval begin="1200.00" end="1500.00" id="LSA9_W_id1" sampledSeconds="130.27" nVehEntered="26" nVehLeft="28" nVehSeen="28" meanSpeed="3.21" meanTimeLoss="3.54" meanOccupancy="17.11" maxOccupancy="98.52" meanMaxJamLengthInVehicles="0.25" meanMaxJamLengthInMeters="1.17" maxJamLengthInVehicles="2" maxJamLengthInMeters="9.59" jamLengthInVehiclesSum="74" jamLengthInMetersSum="351.49" meanHaltingDuration="23.50" maxHaltingDuration="63.00" haltingDurationSum="141.00" meanIntervalHaltingDuration="13.00" maxIntervalHaltingDuration="32.00" intervalHaltingDurationSum="78.00" startedHalts="4.00" meanVehicleNumber="0.52" maxVehicleNumber="2" />