<?xml version="1.0" encoding="UTF-8"?>

<!-- generated on 2026-06-09T16:44:41.124441+01:00 by Eclipse SUMO GUI 1.25.0
<sumoConfiguration xmlns:xsi="http://www.w3.org/2001/XMLSchema-instance" xsi:noNamespaceSchemaLocation="http://sumo.dlr.de/xsd/sumoConfiguration.xsd">

    <input>
        <net-file value="simulation/landau_corridor.net.xml"/>
        <route-files value="C:\Users\mogul\OneDrive\Masaüstü\mt_emre\digital_twin\simulation\weekday_evening_sampled_warmup15.rou.xml"/>
        <additional-files value="C:\Users\mogul\OneDrive\Masaüstü\mt_emre\digital_twin\simulation\traffic_mix.add.xml,C:\Users\mogul\OneDrive\Masaüstü\mt_emre\digital_twin\simulation\Corridor_detectors_e1.add.xml,C:\Users\mogul\OneDrive\Masaüstü\mt_emre\digital_twin\simulation\Corridor_detectors_e2.add.xml,C:\Users\mogul\OneDrive\Masaüstü\mt_emre\digital_twin\simulation\tls_9873_evening.xml,C:\Users\mogul\OneDrive\Masaüstü\mt_emre\digital_twin\simulation\tls_9876_evening.xml,C:\Users\mogul\OneDrive\Masaüstü\mt_emre\digital_twin\simulation\tls_9874_morning.xml,C:\Users\mogul\OneDrive\Masaüstü\mt_emre\digital_twin\simulation\tls_LSA9_evening.xml,C:\Users\mogul\OneDrive\Masaüstü\mt_emre\digital_twin\simulation\tls_9869_evening.xml"/>
    </input>

    <time>
        <begin value="0"/>
        <end value="4500"/>
    </time>

    <traci_server>
        <remote-port value="58897"/>
    </traci_server>

    <gui_only>
        <start value="true"/>
    </gui_only>

</sumoConfiguration>
-->

<detector xmlns:xsi="http://www.w3.org/2001/XMLSchema-instance" xsi:noNamespaceSchemaLocation="http://sumo.dlr.de/xsd/det_e2_file.xsd">
   <interval begin="0.00" end="300.00" id="LSA16_W_id3" sampledSeconds="303.26" nVehEntered="18" nVehLeft="18" nVehSeen="18" meanSpeed="0.89" meanTimeLoss="15.77" meanOccupancy="37.35" maxOccupancy="76.01" meanMaxJamLengthInVehicles="0.86" meanMaxJamLengthInMeters="4.03" maxJamLengthInVehicles="2" maxJamLengthInMeters="9.43" jamLengthInVehiclesSum="258" jamLengthInMetersSum="1209.37" meanHaltingDuration="44.00" maxHaltingDuration="52.00" haltingDurationSum="264.00" meanIntervalHaltingDuration="44.00" maxIntervalHaltingDuration="52.00" intervalHaltingDurationSum="264.00" startedHalts="6.00" meanVehicleNumber="1.06" maxVehicleNumber="2" />
   <interval begin="0.00" end="300.00" id="LSA9_W_id1" sampledSeconds="141.09" nVehEntered="10" nVehLeft="9" nVehSeen="10" meanSpeed="0.79" meanTimeLoss="13.25" meanOccupancy="20.36" maxOccupancy="78.67" meanMaxJamLengthInVehicles="0.41" meanMaxJamLengthInMeters="1.84" maxJamLengthInVehicles="1" maxJamLengthInMeters="4.50" jamLengthInVehiclesSum="123" jamLengthInMetersSum="553.50" meanHaltingDuration="62.50" maxHaltingDuration="72.00" haltingDurationSum="125.00" meanIntervalHaltingDuration="62.50" maxIntervalHaltingDuration="72.00" intervalHaltingDurationSum="125.00" startedHalts="2.00" meanVehicleNumber="0.50" maxVehicleNumber="2" />
   <interval begin="0.00" end="300.00" id="LSA9_W_id2" sampledSeconds="155.93" nVehEntered="8" nVehLeft="6" nVehSeen="8" meanSpeed="0.54" meanTimeLoss="18.73" meanOccupancy="20.52" maxOccupancy="93.53" meanMaxJamLengthInVehicles="0.44" meanMaxJamLengthInMeters="1.97" maxJamLengthInVehicles="3" maxJamLengthInMeters="10.00" jamLengthInVehiclesSum="132" jamLengthInMetersSum="589.65" meanHaltingDuration="29.50" maxHaltingDuration="58.00" haltingDurationSum="118.00" meanIntervalHaltingDuration="29.50" maxIntervalHaltingDuration="58.00" intervalHaltingDurationSum="118.00" startedHalts="8.00" meanVehicleNumber="0.54" maxVehicleNumber="3" />
   <interval begin="300.00" end="600.00" id="LSA16_W_id3" sampledSeconds="322.00" nVehEntered="21" nVehLeft="19" nVehSeen="21" meanSpeed="0.94" meanTimeLoss="14.31" meanOccupancy="40.11" maxOccupancy="76.01" meanMaxJamLengthInVehicles="0.90" meanMaxJamLengthInMeters="4.20" maxJamLengthInVehicles="2" maxJamLengthInMeters="9.43" jamLengthInVehiclesSum="269" jamLengthInMetersSum="1259.19" meanHaltingDuration="34.62" maxHaltingDuration="44.00" haltingDurationSum="277.00" meanIntervalHaltingDuration="34.62" maxIntervalHaltingDuration="44.00" intervalHaltingDurationSum="277.00" startedHalts="8.00" meanVehicleNumber="1.14" maxVehicleNumber="2" />
   <interval begin="300.00" end="600.00" id="LSA9_W_id1" sampledSeconds="315.50" nVehEntered="25" nVehLeft="25" nVehSeen="26" meanSpeed="1.17" meanTimeLoss="11.04" meanOccupancy="41.14" maxOccupancy="80.88" meanMaxJamLengthInVehicles="0.88" meanMaxJamLengthInMeters="4.18" maxJamLengthInVehicles="2" maxJamLengthInMeters="9.59" jamLengthInVehiclesSum="263" jamLengthInMetersSum="1254.38" meanHaltingDuration="56.67" maxHaltingDuration="88.00" haltingDurationSum="340.00" meanIntervalHaltingDuration="44.67" maxIntervalHaltingDuration="78.00" intervalHaltingDurationSum="268.00" startedHalts="5.00" meanVehicleNumber="1.13" maxVehicleNumber="2" />
   <interval begin="300.00" end="600.00" id="LSA9_W_id2" sampledSeconds="536.14" nVehEntered="9" nVehLeft="9" nVehSeen="11" meanSpeed="0.25" meanTimeLoss="47.87" meanOccupancy="82.45" maxOccupancy="99.79" meanMaxJamLengthInVehicles="1.63" meanMaxJamLengthInMeters="8.78" maxJamLengthInVehicles="3" maxJamLengthInMeters="10.00" jamLengthInVehiclesSum="489" jamLengthInMetersSum="2634.21" meanHaltingDuration="35.47" maxHaltingDuration="96.00" haltingDurationSum="603.00" meanIntervalHaltingDuration="29.65" maxIntervalHaltingDuration="96.00" intervalHaltingDurationSum="504.00" startedHalts="15.00" meanVehicleNumber="1.82" maxVehicleNumber="3" />
   <interval begin="600.00" end="900.00" id="LSA16_W_id3" sampledSeconds="328.59" nVehEntered="14" nVehLeft="16" nVehSeen="16" meanSpeed="0.70" meanTimeLoss="19.50" meanOccupancy="40.28" maxOccupancy="76.01" meanMaxJamLengthInVehicles="0.93" meanMaxJamLengthInMeters="4.37" maxJamLengthInVehicles="2" maxJamLengthInMeters="9.43" jamLengthInVehiclesSum="280" jamLengthInMetersSum="1311.31" meanHaltingDuration="41.75" maxHaltingDuration="59.00" haltingDurationSum="334.00" meanIntervalHaltingDuration="35.75" maxIntervalHaltingDuration="49.00" intervalHaltingDurationSum="286.00" startedHalts="6.00" meanVehicleNumber="1.14" maxVehicleNumber="2" />
   <interval begin="600.00" end="900.00" id="LSA9_W_id1" sampledSeconds="311.98" nVehEntered="25" nVehLeft="26" nVehSeen="26" meanSpeed="1.13" meanTimeLoss="10.98" meanOccupancy="41.05" maxOccupancy="80.88" meanMaxJamLengthInVehicles="0.88" meanMaxJamLengthInMeters="4.21" maxJamLengthInVehicles="2" maxJamLengthInMeters="9.59" jamLengthInVehiclesSum="264" jamLengthInMetersSum="1262.74" meanHaltingDuration="67.00" maxHaltingDuration="92.00" haltingDurationSum="268.00" meanIntervalHaltingDuration="67.00" maxIntervalHaltingDuration="92.00" intervalHaltingDurationSum="268.00" startedHalts="4.00" meanVehicleNumber="1.12" maxVehicleNumber="2" />
   <interval begin="600.00" end="900.00" id="LSA9_W_id2" sampledSeconds="289.20" nVehEntered="20" nVehLeft="22" nVehSeen="22" meanSpeed="1.05" meanTimeLoss="12.15" meanOccupancy="54.02" maxOccupancy="99.79" meanMaxJamLengthInVehicles="0.75" meanMaxJamLengthInMeters="4.99" maxJamLengthInVehicles="3" maxJamLengthInMeters="10.00" jamLengthInVehiclesSum="224" jamLengthInMetersSum="1496.91" meanHaltingDuration="22.00" maxHaltingDuration="91.00" haltingDurationSum="242.00" meanIntervalHaltingDuration="20.64" maxIntervalHaltingDuration="91.00" intervalHaltingDurationSum="227.00" startedHalts="10.00" meanVehicleNumber="1.04" maxVehicleNumber="3" />
   <interval begin="0.00" end="900.00" id="LSA10_E_id3" sampledSeconds="784.83" nVehEntered="64" nVehLeft="64" nVehSeen="64" meanSpeed="3.23" meanTimeLoss="9.41" meanOccupancy="7.16" maxOccupancy="38.60" meanMaxJamLengthInVehicles="0.54" meanMaxJamLengthInMeters="2.51" maxJamLengthInVehicles="3" maxJamLengthInMeters="14.07" jamLengthInVehiclesSum="482" jamLengthInMetersSum="2262.33" meanHaltingDuration="26.37" maxHaltingDuration="47.00" haltingDurationSum="501.00" meanIntervalHaltingDuration="26.37" maxIntervalHaltingDuration="47.00" intervalHaltingDurationSum="501.00" startedHalts="19.00" meanVehicleNumber="0.93" maxVehicleNumber="5" />
   <interval begin="0.00" end="900.00" id="LSA10_E_id4" sampledSeconds="706.41" nVehEntered="69" nVehLeft="67" nVehSeen="69" meanSpeed="3.67" meanTimeLoss="7.50" meanOccupancy="6.39" maxOccupancy="31.74" meanMaxJamLengthInVehicles="0.46" meanMaxJamLengthInMeters="2.15" maxJamLengthInVehicles="3" maxJamLengthInMeters="14.07" jamLengthInVehiclesSum="411" jamLengthInMetersSum="1935.14" meanHaltingDuration="22.63" maxHaltingDuration="38.00" haltingDurationSum="430.00" meanIntervalHaltingDuration="22.63" maxIntervalHaltingDuration="38.00" intervalHaltingDurationSum="430.00" startedHalts="19.00" meanVehicleNumber="0.85" maxVehicleNumber="4" />
   <interval begin="0.00" end="900.00" id="LSA10_NE_id29" sampledSeconds="511.34" nVehEntered="13" nVehLeft="13" nVehSeen="13" meanSpeed="1.39" meanTimeLoss="34.53" meanOccupancy="5.27" maxOccupancy="27.00" meanMaxJamLengthInVehicles="0.44" meanMaxJamLengthInMeters="2.26" maxJamLengthInVehicles="3" maxJamLengthInMeters="16.50" jamLengthInVehiclesSum="397" jamLengthInMetersSum="2033.45" meanHaltingDuration="45.11" maxHaltingDuration="67.00" haltingDurationSum="406.00" meanIntervalHaltingDuration="45.11" maxIntervalHaltingDuration="67.00" intervalHaltingDurationSum="406.00" startedHalts="9.00" meanVehicleNumber="0.58" maxVehicleNumber="3" />
   <interval begin="0.00" end="900.00" id="LSA10_NW_id26" sampledSeconds="460.15" nVehEntered="72" nVehLeft="72" nVehSeen="72" meanSpeed="4.41" meanTimeLoss="4.31" meanOccupancy="4.44" maxOccupancy="29.60" meanMaxJamLengthInVehicles="0.30" meanMaxJamLengthInMeters="1.40" maxJamLengthInVehicles="3" maxJamLengthInMeters="13.67" jamLengthInVehiclesSum="267" jamLengthInMetersSum="1260.78" meanHaltingDuration="30.67" maxHaltingDuration="68.00" haltingDurationSum="276.00" meanIntervalHaltingDuration="30.67" maxIntervalHaltingDuration="68.00" intervalHaltingDurationSum="276.00" startedHalts="9.00" meanVehicleNumber="0.58" maxVehicleNumber="4" />
   <interval begin="0.00" end="900.00" id="LSA10_NW_id27" sampledSeconds="624.53" nVehEntered="52" nVehLeft="52" nVehSeen="52" meanSpeed="1.57" meanTimeLoss="10.62" meanOccupancy="6.59" maxOccupancy="32.20" meanMaxJamLengthInVehicles="0.54" meanMaxJamLengthInMeters="2.82" maxJamLengthInVehicles="3" maxJamLengthInMeters="13.67" jamLengthInVehiclesSum="486" jamLengthInMetersSum="2537.07" meanHaltingDuration="35.71" maxHaltingDuration="62.00" haltingDurationSum="500.00" meanIntervalHaltingDuration="35.71" maxIntervalHaltingDuration="62.00" intervalHaltingDurationSum="500.00" startedHalts="14.00" meanVehicleNumber="0.74" maxVehicleNumber="4" />
   <interval begin="0.00" end="900.00" id="LSA10_S_id31" sampledSeconds="773.30" nVehEntered="65" nVehLeft="63" nVehSeen="65" meanSpeed="2.14" meanTimeLoss="9.79" meanOccupancy="7.05" maxOccupancy="27.00" meanMaxJamLengthInVehicles="0.64" meanMaxJamLengthInMeters="2.85" maxJamLengthInVehicles="2" maxJamLengthInMeters="8.93" jamLengthInVehiclesSum="574" jamLengthInMetersSum="2562.63" meanHaltingDuration="36.88" maxHaltingDuration="72.00" haltingDurationSum="590.00" meanIntervalHaltingDuration="36.88" maxIntervalHaltingDuration="72.00" intervalHaltingDurationSum="590.00" startedHalts="16.00" meanVehicleNumber="0.92" maxVehicleNumber="3" />
   <interval begin="0.00" end="900.00" id="LSA10_W_id1" sampledSeconds="1358.70" nVehEntered="99" nVehLeft="97" nVehSeen="99" meanSpeed="2.60" meanTimeLoss="11.14" meanOccupancy="11.37" maxOccupancy="38.00" meanMaxJamLengthInVehicles="1.05" meanMaxJamLengthInMeters="4.77" maxJamLengthInVehicles="3" maxJamLengthInMeters="13.74" jamLengthInVehiclesSum="942" jamLengthInMetersSum="4288.64" meanHaltingDuration="33.48" maxHaltingDuration="44.00" haltingDurationSum="971.00" meanIntervalHaltingDuration="33.48" maxIntervalHaltingDuration="44.00" intervalHaltingDurationSum="971.00" startedHalts="29.00" meanVehicleNumber="1.61" maxVehicleNumber="4" />
   <interval begin="0.00" end="900.00" id="LSA16_E_id10" sampledSeconds="614.96" nVehEntered="61" nVehLeft="61" nVehSeen="61" meanSpeed="5.04" meanTimeLoss="6.33" meanOccupancy="5.75" maxOccupancy="34.11" meanMaxJamLengthInVehicles="0.27" meanMaxJamLengthInMeters="1.32" maxJamLengthInVehicles="4" maxJamLengthInMeters="19.66" jamLengthInVehiclesSum="241" jamLengthInMetersSum="1189.87" meanHaltingDuration="10.64" maxHaltingDuration="23.00" haltingDurationSum="266.00" meanIntervalHaltingDuration="10.64" maxIntervalHaltingDuration="23.00" intervalHaltingDurationSum="266.00" startedHalts="25.00" meanVehicleNumber="0.75" maxVehicleNumber="4" />
   <interval begin="0.00" end="900.00" id="LSA16_E_id11" sampledSeconds="270.59" nVehEntered="47" nVehLeft="46" nVehSeen="47" meanSpeed="9.49" meanTimeLoss="1.79" meanOccupancy="2.58" maxOccupancy="33.25" meanMaxJamLengthInVehicles="0.02" meanMaxJamLengthInMeters="0.12" maxJamLengthInVehicles="3" maxJamLengthInMeters="18.14" jamLengthInVehiclesSum="22" jamLengthInMetersSum="110.85" meanHaltingDuration="3.44" maxHaltingDuration="8.00" haltingDurationSum="31.00" meanIntervalHaltingDuration="3.44" maxIntervalHaltingDuration="8.00" intervalHaltingDurationSum="31.00" startedHalts="9.00" meanVehicleNumber="0.35" maxVehicleNumber="5" />
   <interval begin="0.00" end="900.00" id="LSA16_N_id6" sampledSeconds="1295.11" nVehEntered="43" nVehLeft="38" nVehSeen="43" meanSpeed="1.72" meanTimeLoss="26.23" meanOccupancy="13.99" maxOccupancy="59.45" meanMaxJamLengthInVehicles="1.09" meanMaxJamLengthInMeters="6.18" maxJamLengthInVehicles="5" maxJamLengthInMeters="37.13" jamLengthInVehiclesSum="979" jamLengthInMetersSum="5563.11" meanHaltingDuration="30.67" maxHaltingDuration="61.00" haltingDurationSum="1012.00" meanIntervalHaltingDuration="30.67" maxIntervalHaltingDuration="61.00" intervalHaltingDurationSum="1012.00" startedHalts="33.00" meanVehicleNumber="1.48" maxVehicleNumber="6" />
   <interval begin="0.00" end="900.00" id="LSA16_N_id7" sampledSeconds="1030.52" nVehEntered="33" nVehLeft="32" nVehSeen="33" meanSpeed="1.75" meanTimeLoss="27.25" meanOccupancy="11.29" maxOccupancy="47.60" meanMaxJamLengthInVehicles="0.86" meanMaxJamLengthInMeters="4.84" maxJamLengthInVehicles="5" maxJamLengthInMeters="30.13" jamLengthInVehiclesSum="772" jamLengthInMetersSum="4351.85" meanHaltingDuration="30.69" maxHaltingDuration="58.00" haltingDurationSum="798.00" meanIntervalHaltingDuration="30.69" maxIntervalHaltingDuration="58.00" intervalHaltingDurationSum="798.00" startedHalts="26.00" meanVehicleNumber="1.18" maxVehicleNumber="6" />
   <interval begin="0.00" end="900.00" id="LSA16_S_id1" sampledSeconds="1090.75" nVehEntered="89" nVehLeft="86" nVehSeen="89" meanSpeed="2.07" meanTimeLoss="10.35" meanOccupancy="10.92" maxOccupancy="47.00" meanMaxJamLengthInVehicles="0.89" meanMaxJamLengthInMeters="4.71" maxJamLengthInVehicles="3" maxJamLengthInMeters="17.51" jamLengthInVehiclesSum="797" jamLengthInMetersSum="4237.93" meanHaltingDuration="32.88" maxHaltingDuration="61.00" haltingDurationSum="822.00" meanIntervalHaltingDuration="32.88" maxIntervalHaltingDuration="61.00" intervalHaltingDurationSum="822.00" startedHalts="25.00" meanVehicleNumber="1.31" maxVehicleNumber="4" />
   <interval begin="0.00" end="900.00" id="LSA16_S_id2" sampledSeconds="618.99" nVehEntered="26" nVehLeft="25" nVehSeen="26" meanSpeed="2.05" meanTimeLoss="20.31" meanOccupancy="7.42" maxOccupancy="29.60" meanMaxJamLengthInVehicles="0.50" meanMaxJamLengthInMeters="2.89" maxJamLengthInVehicles="2" maxJamLengthInMeters="11.81" jamLengthInVehiclesSum="451" jamLengthInMetersSum="2596.68" meanHaltingDuration="33.21" maxHaltingDuration="51.00" haltingDurationSum="465.00" meanIntervalHaltingDuration="33.21" maxIntervalHaltingDuration="51.00" intervalHaltingDurationSum="465.00" startedHalts="14.00" meanVehicleNumber="0.71" maxVehicleNumber="3" />
   <interval begin="0.00" end="900.00" id="LSA16_S_id33" sampledSeconds="14.92" nVehEntered="14" nVehLeft="14" nVehSeen="14" meanSpeed="4.40" meanTimeLoss="0.72" meanOccupancy="1.11" maxOccupancy="100.00" meanMaxJamLengthInVehicles="0.00" meanMaxJamLengthInMeters="0.00" maxJamLengthInVehicles="0" maxJamLengthInMeters="0.00" jamLengthInVehiclesSum="0" jamLengthInMetersSum="0.00" meanHaltingDuration="0.00" maxHaltingDuration="0.00" haltingDurationSum="0.00" meanIntervalHaltingDuration="0.00" maxIntervalHaltingDuration="0.00" intervalHaltingDurationSum="0.00" startedHalts="0.00" meanVehicleNumber="0.03" maxVehicleNumber="1" />
   <interval begin="0.00" end="900.00" id="LSA16_W_id4" sampledSeconds="171.18" nVehEntered="13" nVehLeft="13" nVehSeen="13" meanSpeed="1.13" meanTimeLoss="12.08" meanOccupancy="7.65" maxOccupancy="79.18" meanMaxJamLengthInVehicles="0.16" meanMaxJamLengthInMeters="0.72" maxJamLengthInVehicles="2" maxJamLengthInMeters="9.42" jamLengthInVehiclesSum="140" jamLengthInMetersSum="645.85" meanHaltingDuration="36.00" maxHaltingDuration="56.00" haltingDurationSum="144.00" meanIntervalHaltingDuration="36.00" maxIntervalHaltingDuration="56.00" intervalHaltingDurationSum="144.00" startedHalts="4.00" meanVehicleNumber="0.21" maxVehicleNumber="2" />
   <interval begin="0.00" end="900.00" id="LSA1_E_id13" sampledSeconds="688.17" nVehEntered="56" nVehLeft="54" nVehSeen="56" meanSpeed="3.60" meanTimeLoss="9.09" meanOccupancy="6.00" maxOccupancy="29.60" meanMaxJamLengthInVehicles="0.47" meanMaxJamLengthInMeters="1.93" maxJamLengthInVehicles="2" maxJamLengthInMeters="7.92" jamLengthInVehiclesSum="421" jamLengthInMetersSum="1733.26" meanHaltingDuration="27.31" maxHaltingDuration="44.00" haltingDurationSum="437.00" meanIntervalHaltingDuration="27.31" maxIntervalHaltingDuration="44.00" intervalHaltingDurationSum="437.00" startedHalts="16.00" meanVehicleNumber="0.82" maxVehicleNumber="4" />
   <interval begin="0.00" end="900.00" id="LSA1_E_id23" sampledSeconds="865.24" nVehEntered="76" nVehLeft="74" nVehSeen="76" meanSpeed="4.14" meanTimeLoss="8.02" meanOccupancy="7.27" maxOccupancy="38.00" meanMaxJamLengthInVehicles="0.52" meanMaxJamLengthInMeters="2.10" maxJamLengthInVehicles="2" maxJamLengthInMeters="7.92" jamLengthInVehiclesSum="466" jamLengthInMetersSum="1886.62" meanHaltingDuration="28.29" maxHaltingDuration="44.00" haltingDurationSum="481.00" meanIntervalHaltingDuration="28.29" maxIntervalHaltingDuration="44.00" intervalHaltingDurationSum="481.00" startedHalts="19.00" meanVehicleNumber="1.03" maxVehicleNumber="5" />
   <interval begin="0.00" end="900.00" id="LSA1_E_id26" sampledSeconds="1473.84" nVehEntered="86" nVehLeft="82" nVehSeen="86" meanSpeed="1.80" meanTimeLoss="14.53" meanOccupancy="12.55" maxOccupancy="34.84" meanMaxJamLengthInVehicles="1.23" meanMaxJamLengthInMeters="5.46" maxJamLengthInVehicles="2" maxJamLengthInMeters="8.92" jamLengthInVehiclesSum="1103" jamLengthInMetersSum="4916.51" meanHaltingDuration="46.96" maxHaltingDuration="74.00" haltingDurationSum="1127.00" meanIntervalHaltingDuration="46.96" maxIntervalHaltingDuration="74.00" intervalHaltingDurationSum="1127.00" startedHalts="24.00" meanVehicleNumber="1.73" maxVehicleNumber="4" />
   <interval begin="0.00" end="900.00" id="LSA1_E_id27" sampledSeconds="572.81" nVehEntered="101" nVehLeft="101" nVehSeen="101" meanSpeed="8.00" meanTimeLoss="2.03" meanOccupancy="5.54" maxOccupancy="38.00" meanMaxJamLengthInVehicles="0.12" meanMaxJamLengthInMeters="0.48" maxJamLengthInVehicles="2" maxJamLengthInMeters="7.92" jamLengthInVehiclesSum="107" jamLengthInMetersSum="433.55" meanHaltingDuration="10.73" maxHaltingDuration="18.00" haltingDurationSum="118.00" meanIntervalHaltingDuration="10.73" maxIntervalHaltingDuration="18.00" intervalHaltingDurationSum="118.00" startedHalts="11.00" meanVehicleNumber="0.76" maxVehicleNumber="4" />
   <interval begin="0.00" end="900.00" id="LSA1_N_id28_id40" sampledSeconds="1035.26" nVehEntered="63" nVehLeft="63" nVehSeen="63" meanSpeed="2.70" meanTimeLoss="13.24" meanOccupancy="10.06" maxOccupancy="46.49" meanMaxJamLengthInVehicles="0.74" meanMaxJamLengthInMeters="3.99" maxJamLengthInVehicles="5" maxJamLengthInMeters="27.05" jamLengthInVehiclesSum="664" jamLengthInMetersSum="3590.33" meanHaltingDuration="22.42" maxHaltingDuration="46.00" haltingDurationSum="695.00" meanIntervalHaltingDuration="22.42" maxIntervalHaltingDuration="46.00" intervalHaltingDurationSum="695.00" startedHalts="31.00" meanVehicleNumber="1.23" maxVehicleNumber="5" />
   <interval begin="0.00" end="900.00" id="LSA1_N_id30" sampledSeconds="2638.55" nVehEntered="79" nVehLeft="78" nVehSeen="79" meanSpeed="1.64" meanTimeLoss="29.36" meanOccupancy="26.72" maxOccupancy="50.98" meanMaxJamLengthInVehicles="2.27" meanMaxJamLengthInMeters="12.80" maxJamLengthInVehicles="5" maxJamLengthInMeters="26.32" jamLengthInVehiclesSum="2045" jamLengthInMetersSum="11516.53" meanHaltingDuration="42.73" maxHaltingDuration="63.00" haltingDurationSum="2094.00" meanIntervalHaltingDuration="42.73" maxIntervalHaltingDuration="63.00" intervalHaltingDurationSum="2094.00" startedHalts="49.00" meanVehicleNumber="3.02" maxVehicleNumber="5" />
   <interval begin="0.00" end="900.00" id="LSA1_W_id7" sampledSeconds="788.20" nVehEntered="26" nVehLeft="22" nVehSeen="26" meanSpeed="1.67" meanTimeLoss="26.65" meanOccupancy="7.41" maxOccupancy="31.58" meanMaxJamLengthInVehicles="0.69" meanMaxJamLengthInMeters="3.48" maxJamLengthInVehicles="3" maxJamLengthInMeters="14.81" jamLengthInVehiclesSum="618" jamLengthInMetersSum="3130.34" meanHaltingDuration="45.14" maxHaltingDuration="69.00" haltingDurationSum="632.00" meanIntervalHaltingDuration="45.14" maxIntervalHaltingDuration="69.00" intervalHaltingDurationSum="632.00" startedHalts="14.00" meanVehicleNumber="0.91" maxVehicleNumber="4" />
   <interval begin="0.00" end="900.00" id="LSA1_W_id9" sampledSeconds="1073.91" nVehEntered="73" nVehLeft="71" nVehSeen="73" meanSpeed="2.87" meanTimeLoss="11.60" meanOccupancy="9.45" maxOccupancy="32.20" meanMaxJamLengthInVehicles="0.78" meanMaxJamLengthInMeters="3.62" maxJamLengthInVehicles="3" maxJamLengthInMeters="13.64" jamLengthInVehiclesSum="701" jamLengthInMetersSum="3259.78" meanHaltingDuration="26.04" maxHaltingDuration="43.00" haltingDurationSum="729.00" meanIntervalHaltingDuration="26.04" maxIntervalHaltingDuration="43.00" intervalHaltingDurationSum="729.00" startedHalts="28.00" meanVehicleNumber="1.27" maxVehicleNumber="4" />
   <interval begin="0.00" end="900.00" id="LSA9_E_id8" sampledSeconds="1595.01" nVehEntered="58" nVehLeft="58" nVehSeen="58" meanSpeed="1.31" meanTimeLoss="24.74" meanOccupancy="15.02" maxOccupancy="32.62" meanMaxJamLengthInVehicles="1.48" meanMaxJamLengthInMeters="7.69" maxJamLengthInVehicles="3" maxJamLengthInMeters="15.78" jamLengthInVehiclesSum="1329" jamLengthInMetersSum="6924.84" meanHaltingDuration="74.83" maxHaltingDuration="94.00" haltingDurationSum="1347.00" meanIntervalHaltingDuration="74.83" maxIntervalHaltingDuration="94.00" intervalHaltingDurationSum="1347.00" startedHalts="18.00" meanVehicleNumber="1.83" maxVehicleNumber="4" />
   <interval begin="0.00" end="900.00" id="LSA9_E_id9" sampledSeconds="1379.89" nVehEntered="38" nVehLeft="38" nVehSeen="38" meanSpeed="1.48" meanTimeLoss="32.48" meanOccupancy="13.31" maxOccupancy="33.58" meanMaxJamLengthInVehicles="1.25" meanMaxJamLengthInMeters="6.65" maxJamLengthInVehicles="3" maxJamLengthInMeters="15.78" jamLengthInVehiclesSum="1128" jamLengthInMetersSum="5989.03" meanHaltingDuration="63.67" maxHaltingDuration="94.00" haltingDurationSum="1146.00" meanIntervalHaltingDuration="63.67" maxIntervalHaltingDuration="94.00" intervalHaltingDurationSum="1146.00" startedHalts="18.00" meanVehicleNumber="1.57" maxVehicleNumber="4" />
   <interval begin="0.00" end="900.00" id="LSA9_NE_id4" sampledSeconds="523.57" nVehEntered="18" nVehLeft="17" nVehSeen="18" meanSpeed="0.90" meanTimeLoss="26.93" meanOccupancy="4.99" maxOccupancy="21.53" meanMaxJamLengthInVehicles="0.49" meanMaxJamLengthInMeters="2.42" maxJamLengthInVehicles="3" maxJamLengthInMeters="13.77" jamLengthInVehiclesSum="438" jamLengthInMetersSum="2176.09" meanHaltingDuration="37.50" maxHaltingDuration="62.00" haltingDurationSum="450.00" meanIntervalHaltingDuration="37.50" maxIntervalHaltingDuration="62.00" intervalHaltingDurationSum="450.00" startedHalts="12.00" meanVehicleNumber="0.60" maxVehicleNumber="3" />
   <interval begin="0.00" end="900.00" id="LSA9_NE_id5" sampledSeconds="419.13" nVehEntered="20" nVehLeft="19" nVehSeen="20" meanSpeed="1.13" meanTimeLoss="19.20" meanOccupancy="4.58" maxOccupancy="24.54" meanMaxJamLengthInVehicles="0.36" meanMaxJamLengthInMeters="1.96" maxJamLengthInVehicles="3" maxJamLengthInMeters="14.87" jamLengthInVehiclesSum="321" jamLengthInMetersSum="1768.18" meanHaltingDuration="25.33" maxHaltingDuration="52.00" haltingDurationSum="304.00" meanIntervalHaltingDuration="25.33" maxIntervalHaltingDuration="52.00" intervalHaltingDurationSum="304.00" startedHalts="15.00" meanVehicleNumber="0.48" maxVehicleNumber="3" />
   <interval begin="0.00" end="900.00" id="LSA9_NW_id3" sampledSeconds="3334.36" nVehEntered="53" nVehLeft="49" nVehSeen="53" meanSpeed="0.82" meanTimeLoss="57.76" meanOccupancy="30.30" maxOccupancy="50.73" meanMaxJamLengthInVehicles="3.07" meanMaxJamLengthInMeters="15.70" maxJamLengthInVehicles="6" maxJamLengthInMeters="32.86" jamLengthInVehiclesSum="2759" jamLengthInMetersSum="14133.44" meanHaltingDuration="33.46" maxHaltingDuration="80.00" haltingDurationSum="2844.00" meanIntervalHaltingDuration="33.46" maxIntervalHaltingDuration="80.00" intervalHaltingDurationSum="2844.00" startedHalts="85.00" meanVehicleNumber="3.76" maxVehicleNumber="6" />
   <interval begin="0.00" end="900.00" id="LSA9_S_id10" sampledSeconds="659.72" nVehEntered="56" nVehLeft="54" nVehSeen="56" meanSpeed="1.80" meanTimeLoss="9.93" meanOccupancy="6.27" maxOccupancy="29.60" meanMaxJamLengthInVehicles="0.56" meanMaxJamLengthInMeters="2.67" maxJamLengthInVehicles="3" maxJamLengthInMeters="12.84" jamLengthInVehiclesSum="501" jamLengthInMetersSum="2400.15" meanHaltingDuration="34.40" maxHaltingDuration="77.00" haltingDurationSum="516.00" meanIntervalHaltingDuration="34.40" maxIntervalHaltingDuration="77.00" intervalHaltingDurationSum="516.00" startedHalts="15.00" meanVehicleNumber="0.79" maxVehicleNumber="4" />
   <interval begin="900.00" end="1200.00" id="LSA16_W_id3" sampledSeconds="257.04" nVehEntered="22" nVehLeft="21" nVehSeen="22" meanSpeed="1.31" meanTimeLoss="10.56" meanOccupancy="31.93" maxOccupancy="88.37" meanMaxJamLengthInVehicles="0.69" meanMaxJamLengthInMeters="3.25" maxJamLengthInVehicles="2" maxJamLengthInMeters="9.43" jamLengthInVehiclesSum="208" jamLengthInMetersSum="975.59" meanHaltingDuration="42.60" maxHaltingDuration="57.00" haltingDurationSum="213.00" meanIntervalHaltingDuration="42.60" maxIntervalHaltingDuration="57.00" intervalHaltingDurationSum="213.00" startedHalts="5.00" meanVehicleNumber="0.94" maxVehicleNumber="2" />
   <interval begin="900.00" end="1200.00" id="LSA9_W_id1" sampledSeconds="427.67" nVehEntered="33" nVehLeft="31" nVehSeen="33" meanSpeed="1.12" meanTimeLoss="11.84" meanOccupancy="55.72" maxOccupancy="81.71" meanMaxJamLengthInVehicles="1.22" meanMaxJamLengthInMeters="5.82" maxJamLengthInVehicles="2" maxJamLengthInMeters="9.59" jamLengthInVehiclesSum="365" jamLengthInMetersSum="1746.39" meanHaltingDuration="61.83" maxHaltingDuration="90.00" haltingDurationSum="371.00" meanIntervalHaltingDuration="61.83" maxIntervalHaltingDuration="90.00" intervalHaltingDurationSum="371.00" startedHalts="6.00" meanVehicleNumber="1.53" maxVehicleNumber="2" />
   <interval begin="900.00" end="1200.00" id="LSA9_W_id2" sampledSeconds="450.03" nVehEntered="8" nVehLeft="6" nVehSeen="8" meanSpeed="0.21" meanTimeLoss="55.34" meanOccupancy="77.26" maxOccupancy="97.87" meanMaxJamLengthInVehicles="1.36" meanMaxJamLengthInMeters="8.00" maxJamLengthInVehicles="3" maxJamLengthInMeters="10.00" jamLengthInVehiclesSum="409" jamLengthInMetersSum="2400.88" meanHaltingDuration="29.43" maxHaltingDuration="98.00" haltingDurationSum="412.00" meanIntervalHaltingDuration="29.43" maxIntervalHaltingDuration="98.00" intervalHaltingDurationSum="412.00" startedHalts="15.00" meanVehicleNumber="1.53" maxVehicleNumber="3" />
   <interval begin="1200.00" end="1500.00" id="LSA16_W_id3" sampledSeconds="353.65" nVehEntered="21" nVehLeft="21" nVehSeen="22" meanSpeed="0.92" meanTimeLoss="15.02" meanOccupancy="46.30" maxOccupancy="76.01" meanMaxJamLengthInVehicles="0.99" meanMaxJamLengthInMeters="4.80" maxJamLengthInVehicles="2" maxJamLengthInMeters="9.43" jamLengthInVehiclesSum="298" jamLengthInMetersSum="1439.09" meanHaltingDuration="43.86" maxHaltingDuration="60.00" haltingDurationSum="307.00" meanIntervalHaltingDuration="43.43" maxIntervalHaltingDuration="60.00" intervalHaltingDurationSum="304.00" startedHalts="6.00" meanVehicleNumber="1.24" maxVehicleNumber="2" />
   <interval begin="1200.00" end="1500.00" id="LSA9_W_id1" sampledSeconds="454.95" nVehEntered="41" nVehLeft="41" nVehSeen="43" meanSpeed="1.30" meanTimeLoss="9.55" meanOccupancy="59.86" maxOccupancy="80.88" meanMaxJamLengthInVehicles="1.29" meanMaxJamLengthInMeters="6.17" maxJamLengthInVehicles="2" maxJamLengthInMeters="9.59" jamLengthInVehiclesSum="387" jamLengthInMetersSum="1851.58" meanHaltingDuration="71.67" maxHaltingDuration="95.00" haltingDurationSum="430.00" meanIntervalHaltingDuration="65.17" maxIntervalHaltingDuration="76.00" intervalHaltingDurationSum="391.00" startedHalts="4.00" meanVehicleNumber="1.65" maxVehicleNumber="2" />