<?xml version="1.0" encoding="UTF-8"?>

<!-- generated on 2026-05-04T10:03:29.719127+01:00 by Eclipse SUMO GUI 1.25.0
<sumoConfiguration xmlns:xsi="http://www.w3.org/2001/XMLSchema-instance" xsi:noNamespaceSchemaLocation="http://sumo.dlr.de/xsd/sumoConfiguration.xsd">

    <input>
        <net-file value="simulation/landau_corridor.net.xml"/>
        <route-files value="C:\Users\mogul\OneDrive\Masaüstü\mt_emre\digital_twin\simulation\weekday_morning_sampled_warmup15.rou.xml"/>
        <additional-files value="C:\Users\mogul\OneDrive\Masaüstü\mt_emre\digital_twin\simulation\traffic_mix.add.xml,C:\Users\mogul\OneDrive\Masaüstü\mt_emre\digital_twin\simulation\Corridor_detectors_e1.add.xml,C:\Users\mogul\OneDrive\Masaüstü\mt_emre\digital_twin\simulation\tls_9873_morning.xml,C:\Users\mogul\OneDrive\Masaüstü\mt_emre\digital_twin\simulation\tls_9876_morning.xml,C:\Users\mogul\OneDrive\Masaüstü\mt_emre\digital_twin\simulation\tls_9874_morning.xml,C:\Users\mogul\OneDrive\Masaüstü\mt_emre\digital_twin\simulation\tls_LSA9_morning.xml,C:\Users\mogul\OneDrive\Masaüstü\mt_emre\digital_twin\simulation\tls_9869_morning.xml"/>
    </input>

    <output>
        <tripinfo-output value="C:\Users\mogul\OneDrive\Masaüstü\mt_emre\LOS_Analysis\tripinfo_weekday_morning.xml"/>
    </output>

    <time>
        <begin value="0"/>
        <end value="4500"/>
    </time>

    <traci_server>
        <remote-port value="64328"/>
    </traci_server>

    <gui_only>
        <start value="true"/>
    </gui_only>

</sumoConfiguration>
-->

<tripinfos xmlns:xsi="http://www.w3.org/2001/XMLSchema-instance" xsi:noNamespaceSchemaLocation="http://sumo.dlr.de/xsd/tripinfo_file.xsd">
    <tripinfo id="5" depart="6.00" departLane="-180801664_0" departPos="4.60" departSpeed="14.90" departDelay="0.29" arrival="46.00" arrivalLane="-237921036_0" arrivalPos="51.52" arrivalSpeed="14.32" duration="40.00" routeLength="486.89" waitingTime="2.00" waitingCount="1" stopTime="0.00" timeLoss="6.69" rerouteNo="0" devices="tripinfo_5" vType="car" speedFactor="1.07" vaporized=""/>
    <tripinfo id="26" depart="31.00" departLane="237921036_0" departPos="4.60" departSpeed="13.22" departDelay="0.93" arrival="49.00" arrivalLane="-281402232_0" arrivalPos="33.94" arrivalSpeed="7.92" duration="18.00" routeLength="139.77" waitingTime="0.00" waitingCount="0" stopTime="0.00" timeLoss="4.90" rerouteNo="0" devices="tripinfo_26" vType="car" speedFactor="0.95" vaporized=""/>
    <tripinfo id="23" depart="26.00" departLane="-25563346#2_0" departPos="4.60" departSpeed="13.83" departDelay="0.27" arrival="54.00" arrivalLane="13831317#0_0" arrivalPos="59.28" arrivalSpeed="13.48" duration="28.00" routeLength="140.23" waitingTime="11.00" waitingCount="1" stopTime="0.00" timeLoss="16.44" rerouteNo="0" devices="tripinfo_23" vType="car" speedFactor="1.00" vaporized=""/>
    <tripinfo id="43" depart="46.00" departLane="237921036_0" departPos="4.60" departSpeed="15.22" departDelay="0.49" arrival="58.00" arrivalLane="-281402232_0" arrivalPos="33.94" arrivalSpeed="8.93" duration="12.00" routeLength="139.77" waitingTime="0.00" waitingCount="0" stopTime="0.00" timeLoss="0.29" rerouteNo="0" devices="tripinfo_43" vType="car" speedFactor="1.10" vaporized=""/>
    <tripinfo id="22" depart="25.00" departLane="-180801664_0" departPos="4.60" departSpeed="15.24" departDelay="0.68" arrival="59.00" arrivalLane="-237921036_0" arrivalPos="51.52" arrivalSpeed="14.69" duration="34.00" routeLength="486.89" waitingTime="0.00" waitingCount="0" stopTime="0.00" timeLoss="0.92" rerouteNo="0" devices="tripinfo_22" vType="car" speedFactor="1.10" vaporized=""/>
    <tripinfo id="19" depart="23.00" departLane="-203986456#0_0" departPos="4.60" departSpeed="9.21" departDelay="0.38" arrival="63.00" arrivalLane="202234067_0" arrivalPos="76.29" arrivalSpeed="15.17" duration="40.00" routeLength="408.96" waitingTime="4.00" waitingCount="1" stopTime="0.00" timeLoss="9.19" rerouteNo="0" devices="tripinfo_19" vType="car" speedFactor="1.11" vaporized=""/>
    <tripinfo id="6" depart="7.00" departLane="-1182936853_0" departPos="4.60" departSpeed="13.03" departDelay="0.94" arrival="65.00" arrivalLane="26202222#0_0" arrivalPos="59.75" arrivalSpeed="12.42" duration="58.00" routeLength="176.37" waitingTime="39.00" waitingCount="1" stopTime="0.00" timeLoss="44.06" rerouteNo="0" devices="tripinfo_6" vType="car" speedFactor="0.94" vaporized=""/>
    <tripinfo id="37" depart="40.00" departLane="-1182936853_0" departPos="5.90" departSpeed="13.92" departDelay="0.82" arrival="67.00" arrivalLane="26202222#0_0" arrivalPos="59.75" arrivalSpeed="13.66" duration="27.00" routeLength="175.07" waitingTime="7.00" waitingCount="1" stopTime="0.00" timeLoss="13.75" rerouteNo="0" devices="tripinfo_37" vType="van" speedFactor="1.00" vaporized=""/>
    <tripinfo id="50" depart="54.00" departLane="-1182936853_1" departPos="4.60" departSpeed="13.09" departDelay="0.37" arrival="67.00" arrivalLane="12528053#0_0" arrivalPos="37.68" arrivalSpeed="12.78" duration="13.00" routeLength="157.25" waitingTime="0.00" waitingCount="0" stopTime="0.00" timeLoss="0.34" rerouteNo="0" devices="tripinfo_50" vType="car" speedFactor="0.94" vaporized=""/>
    <tripinfo id="2" depart="3.00" departLane="-202157703_1" departPos="4.60" departSpeed="12.14" departDelay="0.18" arrival="68.00" arrivalLane="893429999#1_0" arrivalPos="88.16" arrivalSpeed="11.58" duration="65.00" routeLength="158.05" waitingTime="47.00" waitingCount="1" stopTime="0.00" timeLoss="51.60" rerouteNo="0" devices="tripinfo_2" vType="car" speedFactor="0.87" vaporized=""/>
    <tripinfo id="8" depart="8.00" departLane="-202157703_2" departPos="4.60" departSpeed="12.78" departDelay="0.60" arrival="68.00" arrivalLane="893429999#1_1" arrivalPos="88.16" arrivalSpeed="12.24" duration="60.00" routeLength="158.05" waitingTime="42.00" waitingCount="1" stopTime="0.00" timeLoss="46.94" rerouteNo="0" devices="tripinfo_8" vType="car" speedFactor="0.92" vaporized=""/>
    <tripinfo id="16" depart="18.00" departLane="-202157703_1" departPos="4.60" departSpeed="13.47" departDelay="0.73" arrival="70.00" arrivalLane="893429999#1_0" arrivalPos="88.16" arrivalSpeed="13.93" duration="52.00" routeLength="158.05" waitingTime="34.00" waitingCount="1" stopTime="0.00" timeLoss="39.74" rerouteNo="0" devices="tripinfo_16" vType="car" speedFactor="1.01" vaporized=""/>
    <tripinfo id="18" depart="22.00" departLane="-202157703_1" departPos="4.60" departSpeed="11.46" departDelay="0.09" arrival="71.00" arrivalLane="893429999#1_0" arrivalPos="88.16" arrivalSpeed="13.86" duration="49.00" routeLength="158.05" waitingTime="32.00" waitingCount="1" stopTime="0.00" timeLoss="37.46" rerouteNo="0" devices="tripinfo_18" vType="car" speedFactor="1.03" vaporized=""/>
    <tripinfo id="15" depart="17.00" departLane="-202157703_2" departPos="10.10" departSpeed="9.91" departDelay="0.34" arrival="72.00" arrivalLane="893429999#1_1" arrivalPos="88.16" arrivalSpeed="13.11" duration="55.00" routeLength="152.55" waitingTime="34.00" waitingCount="1" stopTime="0.00" timeLoss="42.56" rerouteNo="0" devices="tripinfo_15" vType="truck" speedFactor="0.96" vaporized=""/>
    <tripinfo id="24" depart="29.00" departLane="-202157703_2" departPos="4.60" departSpeed="9.40" departDelay="0.84" arrival="73.00" arrivalLane="893429999#1_1" arrivalPos="88.16" arrivalSpeed="13.27" duration="44.00" routeLength="158.05" waitingTime="25.00" waitingCount="1" stopTime="0.00" timeLoss="32.30" rerouteNo="0" devices="tripinfo_24" vType="car" speedFactor="0.97" vaporized=""/>
    <tripinfo id="45" depart="48.00" departLane="-202157703_1" departPos="4.60" departSpeed="9.47" departDelay="0.52" arrival="73.00" arrivalLane="893429999#1_0" arrivalPos="88.16" arrivalSpeed="13.64" duration="25.00" routeLength="158.05" waitingTime="6.00" waitingCount="1" stopTime="0.00" timeLoss="12.59" rerouteNo="0" devices="tripinfo_45" vType="car" speedFactor="0.99" vaporized=""/>
    <tripinfo id="46" depart="48.00" departLane="-202157703_2" departPos="4.60" departSpeed="6.60" departDelay="0.52" arrival="75.00" arrivalLane="893429999#1_1" arrivalPos="88.16" arrivalSpeed="12.87" duration="27.00" routeLength="158.05" waitingTime="8.00" waitingCount="1" stopTime="0.00" timeLoss="14.80" rerouteNo="0" devices="tripinfo_46" vType="car" speedFactor="0.97" vaporized=""/>
    <tripinfo id="59" depart="62.00" departLane="-1182936853_0" departPos="4.60" departSpeed="13.62" departDelay="0.36" arrival="76.00" arrivalLane="26202222#0_0" arrivalPos="59.75" arrivalSpeed="13.27" duration="14.00" routeLength="176.37" waitingTime="0.00" waitingCount="0" stopTime="0.00" timeLoss="0.45" rerouteNo="0" devices="tripinfo_59" vType="car" speedFactor="0.98" vaporized=""/>
    <tripinfo id="9" depart="10.00" departLane="-180801664_0" departPos="10.10" departSpeed="13.48" departDelay="0.92" arrival="78.00" arrivalLane="-281402232_0" arrivalPos="33.94" arrivalSpeed="7.83" duration="68.00" routeLength="477.44" waitingTime="23.00" waitingCount="1" stopTime="0.00" timeLoss="29.57" rerouteNo="0" devices="tripinfo_9" vType="truck" speedFactor="0.97" vaporized=""/>
    <tripinfo id="63" depart="66.00" departLane="-202157703_1" departPos="4.60" departSpeed="12.04" departDelay="0.45" arrival="80.00" arrivalLane="893429999#1_0" arrivalPos="88.16" arrivalSpeed="11.65" duration="14.00" routeLength="158.05" waitingTime="0.00" waitingCount="0" stopTime="0.00" timeLoss="0.42" rerouteNo="0" devices="tripinfo_63" vType="car" speedFactor="0.87" vaporized=""/>
    <tripinfo id="17" depart="18.00" departLane="-180801664_0" departPos="4.60" departSpeed="12.47" departDelay="0.18" arrival="81.00" arrivalLane="-281402232_0" arrivalPos="33.94" arrivalSpeed="7.03" duration="63.00" routeLength="482.94" waitingTime="13.00" waitingCount="1" stopTime="0.00" timeLoss="20.86" rerouteNo="0" devices="tripinfo_17" vType="car" speedFactor="0.90" vaporized=""/>
    <tripinfo id="67" depart="69.00" departLane="-202157703_1" departPos="4.60" departSpeed="12.85" departDelay="0.70" arrival="82.00" arrivalLane="893429999#1_0" arrivalPos="88.16" arrivalSpeed="12.73" duration="13.00" routeLength="158.05" waitingTime="0.00" waitingCount="0" stopTime="0.00" timeLoss="0.31" rerouteNo="0" devices="tripinfo_67" vType="car" speedFactor="0.93" vaporized=""/>
    <tripinfo id="30" depart="32.00" departLane="-180801664_0" departPos="4.60" departSpeed="10.77" departDelay="0.31" arrival="83.00" arrivalLane="-281402232_0" arrivalPos="33.94" arrivalSpeed="8.21" duration="51.00" routeLength="482.94" waitingTime="3.00" waitingCount="1" stopTime="0.00" timeLoss="14.85" rerouteNo="0" devices="tripinfo_30" vType="car" speedFactor="1.05" vaporized=""/>
    <tripinfo id="32" depart="33.00" departLane="-180801664_0" departPos="4.60" departSpeed="8.45" departDelay="0.00" arrival="85.00" arrivalLane="-281402232_0" arrivalPos="33.94" arrivalSpeed="7.47" duration="52.00" routeLength="482.94" waitingTime="2.00" waitingCount="1" stopTime="0.00" timeLoss="12.46" rerouteNo="0" devices="tripinfo_32" vType="car" speedFactor="0.96" vaporized=""/>
    <tripinfo id="74" depart="72.00" departLane="-1182936853_0" departPos="10.10" departSpeed="13.90" departDelay="0.67" arrival="85.00" arrivalLane="26202222#0_0" arrivalPos="59.75" arrivalSpeed="13.82" duration="13.00" routeLength="170.87" waitingTime="0.00" waitingCount="0" stopTime="0.00" timeLoss="0.19" rerouteNo="0" devices="tripinfo_74" vType="truck" speedFactor="1.03" vaporized=""/>
    <tripinfo id="76" depart="73.00" departLane="-202157703_1" departPos="4.60" departSpeed="13.64" departDelay="0.72" arrival="85.00" arrivalLane="893429999#1_0" arrivalPos="88.16" arrivalSpeed="13.46" duration="12.00" routeLength="158.05" waitingTime="0.00" waitingCount="0" stopTime="0.00" timeLoss="0.25" rerouteNo="0" devices="tripinfo_76" vType="car" speedFactor="0.98" vaporized=""/>
    <tripinfo id="21" depart="25.00" departLane="237921036_1" departPos="4.60" departSpeed="15.61" departDelay="0.94" arrival="100.00" arrivalLane="180801664_0" arrivalPos="75.36" arrivalSpeed="15.18" duration="75.00" routeLength="500.09" waitingTime="30.00" waitingCount="2" stopTime="0.00" timeLoss="42.14" rerouteNo="0" devices="tripinfo_21" vType="car" speedFactor="1.12" vaporized=""/>
    <tripinfo id="29" depart="31.00" departLane="237921036_1" departPos="4.60" departSpeed="14.23" departDelay="0.22" arrival="102.00" arrivalLane="180801664_0" arrivalPos="75.36" arrivalSpeed="13.70" duration="71.00" routeLength="500.09" waitingTime="24.00" waitingCount="2" stopTime="0.00" timeLoss="34.94" rerouteNo="0" devices="tripinfo_29" vType="car" speedFactor="1.02" vaporized=""/>
    <tripinfo id="39" depart="43.00" departLane="237921036_1" departPos="5.90" departSpeed="13.05" departDelay="0.05" arrival="104.00" arrivalLane="180801664_0" arrivalPos="75.36" arrivalSpeed="12.86" duration="61.00" routeLength="498.79" waitingTime="16.00" waitingCount="1" stopTime="0.00" timeLoss="22.37" rerouteNo="0" devices="tripinfo_39" vType="van" speedFactor="0.94" vaporized=""/>
    <tripinfo id="41" depart="46.00" departLane="-81920369_0" departPos="4.60" departSpeed="14.15" departDelay="0.95" arrival="106.00" arrivalLane="308681382#0_0" arrivalPos="70.56" arrivalSpeed="8.48" duration="60.00" routeLength="208.70" waitingTime="36.00" waitingCount="1" stopTime="0.00" timeLoss="40.56" rerouteNo="0" devices="tripinfo_41" vType="car" speedFactor="1.02" vaporized=""/>
    <tripinfo id="20" depart="24.00" departLane="-81920369_0" departPos="4.60" departSpeed="12.71" departDelay="0.87" arrival="107.00" arrivalLane="14811373#0_0" arrivalPos="56.84" arrivalSpeed="7.56" duration="83.00" routeLength="212.29" waitingTime="57.00" waitingCount="1" stopTime="0.00" timeLoss="62.40" rerouteNo="0" devices="tripinfo_20" vType="car" speedFactor="0.92" vaporized=""/>
    <tripinfo id="40" depart="44.00" departLane="-180801664_0" departPos="4.60" departSpeed="13.46" departDelay="0.41" arrival="129.00" arrivalLane="-237921036_0" arrivalPos="51.52" arrivalSpeed="13.28" duration="85.00" routeLength="486.89" waitingTime="38.00" waitingCount="2" stopTime="0.00" timeLoss="47.77" rerouteNo="0" devices="tripinfo_40" vType="car" speedFactor="0.97" vaporized=""/>
    <tripinfo id="55" depart="61.00" departLane="-180801664_0" departPos="4.60" departSpeed="10.54" departDelay="0.85" arrival="130.00" arrivalLane="-237921036_0" arrivalPos="51.52" arrivalSpeed="14.83" duration="69.00" routeLength="486.89" waitingTime="23.00" waitingCount="1" stopTime="0.00" timeLoss="35.58" rerouteNo="0" devices="tripinfo_55" vType="car" speedFactor="1.07" vaporized=""/>
    <tripinfo id="57" depart="62.00" departLane="237921036_0" departPos="4.60" departSpeed="14.08" departDelay="0.65" arrival="131.00" arrivalLane="-281402232_0" arrivalPos="33.94" arrivalSpeed="8.24" duration="69.00" routeLength="139.77" waitingTime="52.00" waitingCount="1" stopTime="0.00" timeLoss="56.66" rerouteNo="0" devices="tripinfo_57" vType="car" speedFactor="1.01" vaporized=""/>
    <tripinfo id="66" depart="67.00" departLane="-180801664_0" departPos="4.60" departSpeed="12.21" departDelay="1.09" arrival="137.00" arrivalLane="-237921036_0" arrivalPos="51.52" arrivalSpeed="12.21" duration="70.00" routeLength="486.89" waitingTime="22.00" waitingCount="1" stopTime="0.00" timeLoss="29.22" rerouteNo="0" devices="tripinfo_66" vType="car" speedFactor="0.89" vaporized=""/>
    <tripinfo id="124" depart="131.00" departLane="-13831317#2_0" departPos="4.60" departSpeed="14.58" departDelay="0.75" arrival="146.00" arrivalLane="25563346#0_0" arrivalPos="71.08" arrivalSpeed="14.36" duration="15.00" routeLength="147.75" waitingTime="0.00" waitingCount="0" stopTime="0.00" timeLoss="3.72" rerouteNo="0" devices="tripinfo_124" vType="car" speedFactor="1.05" vaporized=""/>
    <tripinfo id="88" depart="87.00" departLane="-1182936853_1" departPos="4.60" departSpeed="12.61" departDelay="0.74" arrival="151.00" arrivalLane="12528053#0_0" arrivalPos="37.68" arrivalSpeed="12.19" duration="64.00" routeLength="157.25" waitingTime="46.00" waitingCount="1" stopTime="0.00" timeLoss="50.78" rerouteNo="0" devices="tripinfo_88" vType="car" speedFactor="0.91" vaporized=""/>
    <tripinfo id="95" depart="95.00" departLane="-1182936853_1" departPos="4.60" departSpeed="14.31" departDelay="0.41" arrival="152.00" arrivalLane="12528053#0_0" arrivalPos="37.68" arrivalSpeed="13.67" duration="57.00" routeLength="157.25" waitingTime="40.00" waitingCount="1" stopTime="0.00" timeLoss="45.73" rerouteNo="0" devices="tripinfo_95" vType="car" speedFactor="1.03" vaporized=""/>
    <tripinfo id="92" depart="93.00" departLane="-202157703_2" departPos="5.90" departSpeed="14.75" departDelay="0.66" arrival="154.00" arrivalLane="893429999#1_1" arrivalPos="88.16" arrivalSpeed="14.58" duration="61.00" routeLength="156.75" waitingTime="45.00" waitingCount="1" stopTime="0.00" timeLoss="50.31" rerouteNo="0" devices="tripinfo_92" vType="van" speedFactor="1.06" vaporized=""/>
    <tripinfo id="102" depart="107.00" departLane="-1182936853_1" departPos="4.60" departSpeed="14.05" departDelay="0.84" arrival="154.00" arrivalLane="12528053#0_0" arrivalPos="37.68" arrivalSpeed="13.57" duration="47.00" routeLength="157.25" waitingTime="29.00" waitingCount="1" stopTime="0.00" timeLoss="35.08" rerouteNo="0" devices="tripinfo_102" vType="car" speedFactor="1.01" vaporized=""/>
    <tripinfo id="82" depart="80.00" departLane="-202157703_1" departPos="5.90" departSpeed="14.07" departDelay="0.29" arrival="155.00" arrivalLane="893429999#1_0" arrivalPos="88.16" arrivalSpeed="13.60" duration="75.00" routeLength="156.75" waitingTime="58.00" waitingCount="1" stopTime="0.00" timeLoss="62.94" rerouteNo="0" devices="tripinfo_82" vType="van" speedFactor="1.01" vaporized=""/>
    <tripinfo id="64" depart="66.00" departLane="-180801664_0" departPos="4.60" departSpeed="14.47" departDelay="0.26" arrival="157.00" arrivalLane="-281402232_0" arrivalPos="33.94" arrivalSpeed="8.61" duration="91.00" routeLength="482.94" waitingTime="44.00" waitingCount="2" stopTime="0.00" timeLoss="54.59" rerouteNo="0" devices="tripinfo_64" vType="car" speedFactor="1.04" vaporized=""/>
    <tripinfo id="115" depart="121.00" departLane="-202157703_2" departPos="4.60" departSpeed="12.54" departDelay="0.10" arrival="157.00" arrivalLane="893429999#1_1" arrivalPos="88.16" arrivalSpeed="12.44" duration="36.00" routeLength="158.05" waitingTime="19.00" waitingCount="1" stopTime="0.00" timeLoss="23.03" rerouteNo="0" devices="tripinfo_115" vType="car" speedFactor="0.90" vaporized=""/>
    <tripinfo id="122" depart="128.00" departLane="-202157703_1" departPos="4.60" departSpeed="12.42" departDelay="0.60" arrival="157.00" arrivalLane="893429999#1_0" arrivalPos="88.16" arrivalSpeed="12.11" duration="29.00" routeLength="158.05" waitingTime="12.00" waitingCount="1" stopTime="0.00" timeLoss="15.87" rerouteNo="0" devices="tripinfo_122" vType="car" speedFactor="0.89" vaporized=""/>
    <tripinfo id="127" depart="133.00" departLane="-1182936853_1" departPos="10.10" departSpeed="13.90" departDelay="0.23" arrival="158.00" arrivalLane="12528053#0_0" arrivalPos="37.68" arrivalSpeed="13.80" duration="25.00" routeLength="151.75" waitingTime="4.00" waitingCount="1" stopTime="0.00" timeLoss="13.32" rerouteNo="0" devices="tripinfo_127" vType="truck" speedFactor="1.04" vaporized=""/>
    <tripinfo id="79" depart="77.00" departLane="-180801664_0" departPos="4.60" departSpeed="11.31" departDelay="1.60" arrival="159.00" arrivalLane="-281402232_0" arrivalPos="33.94" arrivalSpeed="8.46" duration="82.00" routeLength="482.94" waitingTime="32.00" waitingCount="2" stopTime="0.00" timeLoss="46.89" rerouteNo="0" devices="tripinfo_79" vType="car" speedFactor="1.08" vaporized=""/>
    <tripinfo id="138" depart="147.00" departLane="-1182936853_0" departPos="4.60" departSpeed="14.65" departDelay="0.97" arrival="160.00" arrivalLane="26202222#0_0" arrivalPos="59.75" arrivalSpeed="14.36" duration="13.00" routeLength="176.37" waitingTime="0.00" waitingCount="0" stopTime="0.00" timeLoss="0.39" rerouteNo="0" devices="tripinfo_138" vType="car" speedFactor="1.05" vaporized=""/>
    <tripinfo id="86" depart="86.00" departLane="-180801664_0" departPos="4.60" departSpeed="2.14" departDelay="0.75" arrival="161.00" arrivalLane="-281402232_0" arrivalPos="33.94" arrivalSpeed="8.25" duration="75.00" routeLength="482.94" waitingTime="26.00" waitingCount="2" stopTime="0.00" timeLoss="38.21" rerouteNo="0" devices="tripinfo_86" vType="car" speedFactor="1.03" vaporized=""/>
    <tripinfo id="140" depart="148.00" departLane="-1182936853_1" departPos="4.60" departSpeed="12.80" departDelay="0.36" arrival="161.00" arrivalLane="12528053#0_0" arrivalPos="37.68" arrivalSpeed="12.44" duration="13.00" routeLength="157.25" waitingTime="0.00" waitingCount="0" stopTime="0.00" timeLoss="0.30" rerouteNo="0" devices="tripinfo_140" vType="car" speedFactor="0.92" vaporized=""/>
    <tripinfo id="0" depart="1.00" departLane="-26202222#0_0" departPos="5.90" departSpeed="13.68" departDelay="0.16" arrival="163.00" arrivalLane="14811373#0_0" arrivalPos="56.84" arrivalSpeed="7.75" duration="162.00" routeLength="630.35" waitingTime="97.00" waitingCount="3" stopTime="0.00" timeLoss="111.49" rerouteNo="0" devices="tripinfo_0" vType="van" speedFactor="0.99" vaporized=""/>
    <tripinfo id="90" depart="103.00" departLane="-180801664_0" departPos="4.60" departSpeed="2.37" departDelay="13.92" arrival="163.00" arrivalLane="-281402232_0" arrivalPos="33.94" arrivalSpeed="8.27" duration="60.00" routeLength="482.94" waitingTime="13.00" waitingCount="1" stopTime="0.00" timeLoss="22.38" rerouteNo="0" devices="tripinfo_90" vType="car" speedFactor="1.00" vaporized=""/>
    <tripinfo id="4" depart="5.00" departLane="-26202222#0_0" departPos="4.60" departSpeed="14.04" departDelay="0.82" arrival="165.00" arrivalLane="14811373#0_0" arrivalPos="56.84" arrivalSpeed="8.10" duration="160.00" routeLength="631.65" waitingTime="89.00" waitingCount="3" stopTime="0.00" timeLoss="110.58" rerouteNo="0" devices="tripinfo_4" vType="car" speedFactor="1.01" vaporized=""/>
    <tripinfo id="12" depart="11.00" departLane="-180801664_0" departPos="4.60" departSpeed="11.34" departDelay="0.54" arrival="165.00" arrivalLane="202234067_0" arrivalPos="76.29" arrivalSpeed="14.80" duration="154.00" routeLength="1020.13" waitingTime="70.00" waitingCount="2" stopTime="0.00" timeLoss="84.00" rerouteNo="0" devices="tripinfo_12" vType="car" speedFactor="1.07" vaporized=""/>
    <tripinfo id="35" depart="36.00" departLane="-180801664_0" departPos="4.60" departSpeed="14.67" departDelay="0.16" arrival="167.00" arrivalLane="202234067_0" arrivalPos="76.29" arrivalSpeed="15.66" duration="131.00" routeLength="1020.13" waitingTime="45.00" waitingCount="2" stopTime="0.00" timeLoss="64.66" rerouteNo="0" devices="tripinfo_35" vType="car" speedFactor="1.14" vaporized=""/>
    <tripinfo id="28" depart="31.00" departLane="-180801664_0" departPos="10.10" departSpeed="12.97" departDelay="0.33" arrival="172.00" arrivalLane="202234067_0" arrivalPos="76.29" arrivalSpeed="12.96" duration="141.00" routeLength="1014.63" waitingTime="43.00" waitingCount="2" stopTime="0.00" timeLoss="61.29" rerouteNo="0" devices="tripinfo_28" vType="truck" speedFactor="0.93" vaporized=""/>
    <tripinfo id="11" depart="10.00" departLane="-81920369_0" departPos="5.90" departSpeed="13.36" departDelay="0.17" arrival="174.00" arrivalLane="-281402232_0" arrivalPos="33.94" arrivalSpeed="7.82" duration="164.00" routeLength="642.31" waitingTime="102.00" waitingCount="2" stopTime="0.00" timeLoss="112.26" rerouteNo="0" devices="tripinfo_11" vType="van" speedFactor="0.96" vaporized=""/>
    <tripinfo id="42" depart="47.00" departLane="-81920369_0" departPos="4.60" departSpeed="12.31" departDelay="1.59" arrival="176.00" arrivalLane="-281402232_0" arrivalPos="33.94" arrivalSpeed="8.07" duration="129.00" routeLength="643.61" waitingTime="66.00" waitingCount="2" stopTime="0.00" timeLoss="78.60" rerouteNo="0" devices="tripinfo_42" vType="car" speedFactor="1.00" vaporized=""/>
    <tripinfo id="1" depart="2.00" departLane="-26202222#0_0" departPos="4.60" departSpeed="11.29" departDelay="0.01" arrival="177.00" arrivalLane="202234067_0" arrivalPos="76.29" arrivalSpeed="14.31" duration="175.00" routeLength="717.22" waitingTime="106.00" waitingCount="4" stopTime="0.00" timeLoss="126.56" rerouteNo="0" devices="tripinfo_1" vType="car" speedFactor="1.07" vaporized=""/>
    <tripinfo id="83" depart="83.00" departLane="-180801664_0" departPos="4.60" departSpeed="6.30" departDelay="0.76" arrival="178.00" arrivalLane="-237921036_0" arrivalPos="51.52" arrivalSpeed="13.53" duration="95.00" routeLength="486.89" waitingTime="46.00" waitingCount="2" stopTime="0.00" timeLoss="59.00" rerouteNo="0" devices="tripinfo_83" vType="car" speedFactor="1.00" vaporized=""/>
    <tripinfo id="98" depart="108.00" departLane="-180801664_0" departPos="4.60" departSpeed="7.09" departDelay="8.61" arrival="180.00" arrivalLane="-237921036_0" arrivalPos="51.52" arrivalSpeed="12.82" duration="72.00" routeLength="486.89" waitingTime="27.00" waitingCount="1" stopTime="0.00" timeLoss="34.65" rerouteNo="0" devices="tripinfo_98" vType="car" speedFactor="0.96" vaporized=""/>
    <tripinfo id="100" depart="109.00" departLane="-180801664_0" departPos="4.60" departSpeed="3.23" departDelay="9.02" arrival="181.00" arrivalLane="-237921036_0" arrivalPos="51.52" arrivalSpeed="14.29" duration="72.00" routeLength="486.89" waitingTime="27.00" waitingCount="1" stopTime="0.00" timeLoss="37.88" rerouteNo="0" devices="tripinfo_100" vType="car" speedFactor="1.05" vaporized=""/>
    <tripinfo id="111" depart="114.00" departLane="-180801664_0" departPos="4.60" departSpeed="9.67" departDelay="0.43" arrival="183.00" arrivalLane="-237921036_0" arrivalPos="51.52" arrivalSpeed="15.51" duration="69.00" routeLength="486.89" waitingTime="26.00" waitingCount="1" stopTime="0.00" timeLoss="37.33" rerouteNo="0" devices="tripinfo_111" vType="car" speedFactor="1.14" vaporized=""/>
    <tripinfo id="33" depart="34.00" departLane="-81920369_0" departPos="4.60" departSpeed="12.52" departDelay="0.74" arrival="190.00" arrivalLane="12528053#0_0" arrivalPos="37.68" arrivalSpeed="12.02" duration="156.00" routeLength="682.19" waitingTime="89.00" waitingCount="2" stopTime="0.00" timeLoss="101.31" rerouteNo="0" devices="tripinfo_33" vType="car" speedFactor="0.90" vaporized=""/>
    <tripinfo id="47" depart="50.00" departLane="-13831317#2_0" departPos="4.60" departSpeed="12.86" departDelay="0.15" arrival="191.00" arrivalLane="202234067_0" arrivalPos="76.29" arrivalSpeed="12.64" duration="141.00" routeLength="565.94" waitingTime="82.00" waitingCount="4" stopTime="0.00" timeLoss="96.52" rerouteNo="0" devices="tripinfo_47" vType="car" speedFactor="0.93" vaporized=""/>
    <tripinfo id="56" depart="61.00" departLane="237921036_1" departPos="4.60" departSpeed="12.75" departDelay="0.19" arrival="191.00" arrivalLane="180801664_0" arrivalPos="75.36" arrivalSpeed="12.48" duration="130.00" routeLength="500.09" waitingTime="80.00" waitingCount="2" stopTime="0.00" timeLoss="90.07" rerouteNo="0" devices="tripinfo_56" vType="car" speedFactor="0.92" vaporized=""/>
    <tripinfo id="62" depart="65.00" departLane="-81920369_0" departPos="5.90" departSpeed="13.41" departDelay="0.28" arrival="192.00" arrivalLane="12528053#0_0" arrivalPos="37.68" arrivalSpeed="13.12" duration="127.00" routeLength="680.89" waitingTime="62.00" waitingCount="2" stopTime="0.00" timeLoss="75.57" rerouteNo="0" devices="tripinfo_62" vType="van" speedFactor="0.97" vaporized=""/>
    <tripinfo id="69" depart="70.00" departLane="237921036_1" departPos="4.60" departSpeed="14.97" departDelay="0.21" arrival="192.00" arrivalLane="180801664_0" arrivalPos="75.36" arrivalSpeed="14.46" duration="122.00" routeLength="500.09" waitingTime="73.00" waitingCount="2" stopTime="0.00" timeLoss="88.33" rerouteNo="0" devices="tripinfo_69" vType="car" speedFactor="1.08" vaporized=""/>
    <tripinfo id="25" depart="29.00" departLane="-1183449794_0" departPos="5.90" departSpeed="8.43" departDelay="0.04" arrival="193.00" arrivalLane="202234067_0" arrivalPos="76.29" arrivalSpeed="13.85" duration="164.00" routeLength="541.56" waitingTime="101.00" waitingCount="3" stopTime="0.00" timeLoss="122.10" rerouteNo="0" devices="tripinfo_25" vType="van" speedFactor="1.01" vaporized=""/>
    <tripinfo id="93" depart="94.00" departLane="-81920369_0" departPos="4.60" departSpeed="14.25" departDelay="0.98" arrival="193.00" arrivalLane="12528053#0_0" arrivalPos="37.68" arrivalSpeed="13.86" duration="99.00" routeLength="682.19" waitingTime="38.00" waitingCount="2" stopTime="0.00" timeLoss="51.02" rerouteNo="0" devices="tripinfo_93" vType="car" speedFactor="1.03" vaporized=""/>
    <tripinfo id="73" depart="72.00" departLane="237921036_1" departPos="4.60" departSpeed="14.70" departDelay="0.80" arrival="194.00" arrivalLane="180801664_0" arrivalPos="75.36" arrivalSpeed="14.57" duration="122.00" routeLength="500.09" waitingTime="71.00" waitingCount="2" stopTime="0.00" timeLoss="87.18" rerouteNo="0" devices="tripinfo_73" vType="car" speedFactor="1.06" vaporized=""/>
    <tripinfo id="89" depart="88.00" departLane="-81920369_0" departPos="4.60" departSpeed="14.25" departDelay="0.48" arrival="195.00" arrivalLane="12528053#0_0" arrivalPos="37.68" arrivalSpeed="14.14" duration="107.00" routeLength="682.19" waitingTime="43.00" waitingCount="2" stopTime="0.00" timeLoss="58.55" rerouteNo="0" devices="tripinfo_89" vType="car" speedFactor="1.03" vaporized=""/>
    <tripinfo id="91" depart="91.00" departLane="237921036_1" departPos="4.60" departSpeed="13.80" departDelay="0.90" arrival="195.00" arrivalLane="180801664_0" arrivalPos="75.36" arrivalSpeed="14.98" duration="104.00" routeLength="500.09" waitingTime="54.00" waitingCount="2" stopTime="0.00" timeLoss="70.82" rerouteNo="0" devices="tripinfo_91" vType="car" speedFactor="1.09" vaporized=""/>