<?xml version="1.0" encoding="UTF-8"?>

<!-- generated on 2026-05-07T15:31:09.465966+01:00 by Eclipse SUMO GUI 1.25.0
<sumoConfiguration xmlns:xsi="http://www.w3.org/2001/XMLSchema-instance" xsi:noNamespaceSchemaLocation="http://sumo.dlr.de/xsd/sumoConfiguration.xsd">

    <input>
        <net-file value="simulation/landau_corridor.net.xml"/>
        <route-files value="C:\Users\mogul\OneDrive\Masaüstü\mt_emre\digital_twin\simulation\weekend_evening_sampled_warmup15.rou.xml"/>
        <additional-files value="C:\Users\mogul\OneDrive\Masaüstü\mt_emre\digital_twin\simulation\traffic_mix.add.xml,C:\Users\mogul\OneDrive\Masaüstü\mt_emre\digital_twin\simulation\Corridor_detectors_e1.add.xml,C:\Users\mogul\OneDrive\Masaüstü\mt_emre\digital_twin\simulation\tls_9873_weekend_evening.xml,C:\Users\mogul\OneDrive\Masaüstü\mt_emre\digital_twin\simulation\tls_9876_weekend_evening.xml,C:\Users\mogul\OneDrive\Masaüstü\mt_emre\digital_twin\simulation\tls_9874_morning.xml,C:\Users\mogul\OneDrive\Masaüstü\mt_emre\digital_twin\simulation\tls_LSA9_weekend_evening.xml,C:\Users\mogul\OneDrive\Masaüstü\mt_emre\digital_twin\simulation\tls_9869_weekend_evening.xml"/>
    </input>

    <output>
        <tripinfo-output value="C:\Users\mogul\OneDrive\Masaüstü\mt_emre\LOS_Analysis\tripinfo_weekend_morning.xml"/>
    </output>

    <time>
        <begin value="0"/>
        <end value="4500"/>
    </time>

    <traci_server>
        <remote-port value="59649"/>
    </traci_server>

    <gui_only>
        <start value="true"/>
    </gui_only>

</sumoConfiguration>
-->

<tripinfos xmlns:xsi="http://www.w3.org/2001/XMLSchema-instance" xsi:noNamespaceSchemaLocation="http://sumo.dlr.de/xsd/tripinfo_file.xsd">
    <tripinfo id="21" depart="29.00" departLane="237921036_0" departPos="4.60" departSpeed="15.61" departDelay="0.04" arrival="48.00" arrivalLane="-281402232_0" arrivalPos="33.94" arrivalSpeed="9.35" duration="19.00" routeLength="139.77" waitingTime="2.00" waitingCount="1" stopTime="0.00" timeLoss="8.14" rerouteNo="0" devices="tripinfo_21" vType="car" speedFactor="1.12" vaporized=""/>
    <tripinfo id="9" depart="13.00" departLane="-180801664_0" departPos="10.10" departSpeed="13.48" departDelay="0.03" arrival="50.00" arrivalLane="-237921036_0" arrivalPos="51.52" arrivalSpeed="13.47" duration="37.00" routeLength="481.39" waitingTime="0.00" waitingCount="0" stopTime="0.00" timeLoss="0.62" rerouteNo="0" devices="tripinfo_9" vType="truck" speedFactor="0.97" vaporized=""/>
    <tripinfo id="11" depart="15.00" departLane="-180801664_0" departPos="5.90" departSpeed="13.36" departDelay="0.74" arrival="53.00" arrivalLane="-237921036_0" arrivalPos="51.52" arrivalSpeed="13.03" duration="38.00" routeLength="485.59" waitingTime="0.00" waitingCount="0" stopTime="0.00" timeLoss="1.00" rerouteNo="0" devices="tripinfo_11" vType="van" speedFactor="0.96" vaporized=""/>
    <tripinfo id="12" depart="18.00" departLane="-180801664_0" departPos="4.60" departSpeed="14.81" departDelay="0.73" arrival="55.00" arrivalLane="-237921036_0" arrivalPos="51.52" arrivalSpeed="14.50" duration="37.00" routeLength="486.89" waitingTime="0.00" waitingCount="0" stopTime="0.00" timeLoss="3.08" rerouteNo="0" devices="tripinfo_12" vType="car" speedFactor="1.07" vaporized=""/>
    <tripinfo id="0" depart="1.00" departLane="-1182936853_1" departPos="5.90" departSpeed="13.68" departDelay="0.16" arrival="58.00" arrivalLane="12528053#0_0" arrivalPos="37.68" arrivalSpeed="13.43" duration="57.00" routeLength="155.95" waitingTime="40.00" waitingCount="1" stopTime="0.00" timeLoss="45.19" rerouteNo="0" devices="tripinfo_0" vType="van" speedFactor="0.99" vaporized=""/>
    <tripinfo id="4" depart="8.00" departLane="-1182936853_0" departPos="4.60" departSpeed="14.04" departDelay="0.60" arrival="59.00" arrivalLane="26202222#0_0" arrivalPos="59.75" arrivalSpeed="13.90" duration="51.00" routeLength="176.37" waitingTime="32.00" waitingCount="1" stopTime="0.00" timeLoss="37.71" rerouteNo="0" devices="tripinfo_4" vType="car" speedFactor="1.01" vaporized=""/>
    <tripinfo id="14" depart="24.00" departLane="-1182936853_1" departPos="4.60" departSpeed="14.21" departDelay="0.87" arrival="60.00" arrivalLane="12528053#0_0" arrivalPos="37.68" arrivalSpeed="14.08" duration="36.00" routeLength="157.25" waitingTime="18.00" waitingCount="1" stopTime="0.00" timeLoss="24.12" rerouteNo="0" devices="tripinfo_14" vType="car" speedFactor="1.02" vaporized=""/>
    <tripinfo id="24" depart="31.00" departLane="-202157703_1" departPos="4.60" departSpeed="13.54" departDelay="0.33" arrival="61.00" arrivalLane="893429999#1_0" arrivalPos="88.16" arrivalSpeed="13.47" duration="30.00" routeLength="158.05" waitingTime="13.00" waitingCount="1" stopTime="0.00" timeLoss="18.14" rerouteNo="0" devices="tripinfo_24" vType="car" speedFactor="0.97" vaporized=""/>
    <tripinfo id="32" depart="40.00" departLane="-1182936853_0" departPos="4.60" departSpeed="13.36" departDelay="0.50" arrival="61.00" arrivalLane="26202222#0_0" arrivalPos="59.75" arrivalSpeed="12.93" duration="21.00" routeLength="176.37" waitingTime="2.00" waitingCount="1" stopTime="0.00" timeLoss="6.97" rerouteNo="0" devices="tripinfo_32" vType="car" speedFactor="0.96" vaporized=""/>
    <tripinfo id="34" depart="44.00" departLane="-202157703_2" departPos="4.60" departSpeed="14.60" departDelay="0.41" arrival="61.00" arrivalLane="893429999#1_1" arrivalPos="88.16" arrivalSpeed="14.48" duration="17.00" routeLength="158.05" waitingTime="1.00" waitingCount="1" stopTime="0.00" timeLoss="5.69" rerouteNo="0" devices="tripinfo_34" vType="car" speedFactor="1.05" vaporized=""/>
    <tripinfo id="28" depart="35.00" departLane="-1182936853_1" departPos="10.10" departSpeed="12.97" departDelay="0.05" arrival="63.00" arrivalLane="12528053#0_0" arrivalPos="37.68" arrivalSpeed="12.86" duration="28.00" routeLength="151.75" waitingTime="7.00" waitingCount="1" stopTime="0.00" timeLoss="16.22" rerouteNo="0" devices="tripinfo_28" vType="truck" speedFactor="0.93" vaporized=""/>
    <tripinfo id="8" depart="13.00" departLane="-203986456#0_0" departPos="4.60" departSpeed="7.67" departDelay="0.81" arrival="69.00" arrivalLane="202234067_0" arrivalPos="76.29" arrivalSpeed="12.64" duration="56.00" routeLength="408.96" waitingTime="13.00" waitingCount="1" stopTime="0.00" timeLoss="18.14" rerouteNo="0" devices="tripinfo_8" vType="car" speedFactor="0.92" vaporized=""/>
    <tripinfo id="22" depart="31.00" departLane="-203986456#0_0" departPos="4.60" departSpeed="9.14" departDelay="0.93" arrival="70.00" arrivalLane="202234067_0" arrivalPos="76.29" arrivalSpeed="14.88" duration="39.00" routeLength="408.96" waitingTime="0.00" waitingCount="0" stopTime="0.00" timeLoss="7.95" rerouteNo="0" devices="tripinfo_22" vType="car" speedFactor="1.10" vaporized=""/>
    <tripinfo id="27" depart="34.00" departLane="-203986456#0_0" departPos="4.60" departSpeed="9.01" departDelay="0.74" arrival="71.00" arrivalLane="202234067_0" arrivalPos="76.29" arrivalSpeed="14.50" duration="37.00" routeLength="408.96" waitingTime="0.00" waitingCount="0" stopTime="0.00" timeLoss="5.91" rerouteNo="0" devices="tripinfo_27" vType="car" speedFactor="1.08" vaporized=""/>
    <tripinfo id="42" depart="57.00" departLane="-1182936853_0" departPos="4.60" departSpeed="13.86" departDelay="0.32" arrival="71.00" arrivalLane="26202222#0_0" arrivalPos="59.75" arrivalSpeed="13.65" duration="14.00" routeLength="176.37" waitingTime="0.00" waitingCount="0" stopTime="0.00" timeLoss="0.45" rerouteNo="0" devices="tripinfo_42" vType="car" speedFactor="1.00" vaporized=""/>
    <tripinfo id="49" depart="62.00" departLane="-1182936853_1" departPos="4.60" departSpeed="14.14" departDelay="0.36" arrival="74.00" arrivalLane="12528053#0_0" arrivalPos="37.68" arrivalSpeed="13.57" duration="12.00" routeLength="157.25" waitingTime="0.00" waitingCount="0" stopTime="0.00" timeLoss="0.33" rerouteNo="0" devices="tripinfo_49" vType="car" speedFactor="1.02" vaporized=""/>
    <tripinfo id="1" depart="2.00" departLane="-180801664_0" departPos="4.60" departSpeed="14.81" departDelay="0.01" arrival="75.00" arrivalLane="-281402232_0" arrivalPos="33.94" arrivalSpeed="8.72" duration="73.00" routeLength="482.94" waitingTime="33.00" waitingCount="1" stopTime="0.00" timeLoss="37.72" rerouteNo="0" devices="tripinfo_1" vType="car" speedFactor="1.07" vaporized=""/>
    <tripinfo id="25" depart="33.00" departLane="-180801664_0" departPos="5.90" departSpeed="14.05" departDelay="0.86" arrival="77.00" arrivalLane="-281402232_0" arrivalPos="33.94" arrivalSpeed="8.27" duration="44.00" routeLength="481.64" waitingTime="0.00" waitingCount="0" stopTime="0.00" timeLoss="7.25" rerouteNo="0" devices="tripinfo_25" vType="van" speedFactor="1.01" vaporized=""/>
    <tripinfo id="62" depart="75.00" departLane="-202157703_1" departPos="5.90" departSpeed="13.41" departDelay="0.03" arrival="87.00" arrivalLane="893429999#1_0" arrivalPos="88.16" arrivalSpeed="13.14" duration="12.00" routeLength="156.75" waitingTime="0.00" waitingCount="0" stopTime="0.00" timeLoss="0.23" rerouteNo="0" devices="tripinfo_62" vType="van" speedFactor="0.97" vaporized=""/>
    <tripinfo id="48" depart="62.00" departLane="-81920369_0" departPos="4.60" departSpeed="13.31" departDelay="0.52" arrival="94.00" arrivalLane="308681382#0_0" arrivalPos="70.56" arrivalSpeed="7.65" duration="32.00" routeLength="208.70" waitingTime="8.00" waitingCount="1" stopTime="0.00" timeLoss="11.27" rerouteNo="0" devices="tripinfo_48" vType="car" speedFactor="0.96" vaporized=""/>
    <tripinfo id="31" depart="40.00" departLane="-180801664_0" departPos="4.60" departSpeed="14.31" departDelay="0.82" arrival="95.00" arrivalLane="-237921036_0" arrivalPos="51.52" arrivalSpeed="13.99" duration="55.00" routeLength="486.89" waitingTime="12.00" waitingCount="1" stopTime="0.00" timeLoss="20.05" rerouteNo="0" devices="tripinfo_31" vType="car" speedFactor="1.03" vaporized=""/>
    <tripinfo id="5" depart="10.00" departLane="237921036_1" departPos="4.60" departSpeed="14.90" departDelay="0.92" arrival="100.00" arrivalLane="180801664_0" arrivalPos="75.36" arrivalSpeed="14.90" duration="90.00" routeLength="500.09" waitingTime="44.00" waitingCount="2" stopTime="0.00" timeLoss="55.74" rerouteNo="0" devices="tripinfo_5" vType="car" speedFactor="1.07" vaporized=""/>
    <tripinfo id="17" depart="26.00" departLane="237921036_1" departPos="4.60" departSpeed="12.47" departDelay="0.50" arrival="102.00" arrivalLane="180801664_0" arrivalPos="75.36" arrivalSpeed="12.21" duration="76.00" routeLength="500.09" waitingTime="27.00" waitingCount="2" stopTime="0.00" timeLoss="35.90" rerouteNo="0" devices="tripinfo_17" vType="car" speedFactor="0.90" vaporized=""/>
    <tripinfo id="18" depart="27.00" departLane="237921036_1" departPos="4.60" departSpeed="9.92" departDelay="1.27" arrival="104.00" arrivalLane="180801664_0" arrivalPos="75.36" arrivalSpeed="14.02" duration="77.00" routeLength="500.09" waitingTime="26.00" waitingCount="2" stopTime="0.00" timeLoss="41.30" rerouteNo="0" devices="tripinfo_18" vType="car" speedFactor="1.03" vaporized=""/>
    <tripinfo id="39" depart="52.00" departLane="237921036_1" departPos="5.90" departSpeed="13.05" departDelay="0.34" arrival="106.00" arrivalLane="180801664_0" arrivalPos="75.36" arrivalSpeed="12.59" duration="54.00" routeLength="498.79" waitingTime="8.00" waitingCount="1" stopTime="0.00" timeLoss="14.99" rerouteNo="0" devices="tripinfo_39" vType="van" speedFactor="0.94" vaporized=""/>
    <tripinfo id="72" depart="93.00" departLane="237921036_0" departPos="4.60" departSpeed="13.32" departDelay="0.66" arrival="131.00" arrivalLane="-281402232_0" arrivalPos="33.94" arrivalSpeed="7.42" duration="38.00" routeLength="139.77" waitingTime="20.00" waitingCount="1" stopTime="0.00" timeLoss="25.21" rerouteNo="0" devices="tripinfo_72" vType="car" speedFactor="0.96" vaporized=""/>
    <tripinfo id="54" depart="66.00" departLane="-180801664_0" departPos="4.60" departSpeed="12.98" departDelay="0.26" arrival="133.00" arrivalLane="-237921036_0" arrivalPos="51.52" arrivalSpeed="12.95" duration="67.00" routeLength="486.89" waitingTime="20.00" waitingCount="1" stopTime="0.00" timeLoss="28.53" rerouteNo="0" devices="tripinfo_54" vType="car" speedFactor="0.93" vaporized=""/>
    <tripinfo id="20" depart="29.00" departLane="-26202222#0_0" departPos="4.60" departSpeed="12.71" departDelay="0.84" arrival="136.00" arrivalLane="14811373#0_0" arrivalPos="56.84" arrivalSpeed="7.42" duration="107.00" routeLength="631.65" waitingTime="43.00" waitingCount="2" stopTime="0.00" timeLoss="52.71" rerouteNo="0" devices="tripinfo_20" vType="car" speedFactor="0.92" vaporized=""/>
    <tripinfo id="19" depart="28.00" departLane="-180801664_0" departPos="4.60" departSpeed="15.36" departDelay="0.60" arrival="138.00" arrivalLane="308681382#0_0" arrivalPos="70.56" arrivalSpeed="9.12" duration="110.00" routeLength="976.62" waitingTime="29.00" waitingCount="2" stopTime="0.00" timeLoss="42.21" rerouteNo="0" devices="tripinfo_19" vType="car" speedFactor="1.11" vaporized=""/>
    <tripinfo id="71" depart="91.00" departLane="-180801664_0" departPos="4.60" departSpeed="9.68" departDelay="0.90" arrival="140.00" arrivalLane="-237921036_0" arrivalPos="51.52" arrivalSpeed="13.41" duration="49.00" routeLength="486.89" waitingTime="2.00" waitingCount="1" stopTime="0.00" timeLoss="12.26" rerouteNo="0" devices="tripinfo_71" vType="car" speedFactor="0.97" vaporized=""/>
    <tripinfo id="3" depart="7.00" departLane="-180801664_0" departPos="4.60" departSpeed="12.62" departDelay="0.94" arrival="142.00" arrivalLane="308681382#0_0" arrivalPos="70.56" arrivalSpeed="7.20" duration="135.00" routeLength="976.62" waitingTime="41.00" waitingCount="2" stopTime="0.00" timeLoss="52.54" rerouteNo="0" devices="tripinfo_3" vType="car" speedFactor="0.91" vaporized=""/>
    <tripinfo id="23" depart="31.00" departLane="-180801664_0" departPos="4.60" departSpeed="13.83" departDelay="0.42" arrival="144.00" arrivalLane="308681382#0_0" arrivalPos="70.56" arrivalSpeed="8.13" duration="113.00" routeLength="976.62" waitingTime="21.00" waitingCount="2" stopTime="0.00" timeLoss="37.42" rerouteNo="0" devices="tripinfo_23" vType="car" speedFactor="1.00" vaporized=""/>
    <tripinfo id="30" depart="37.00" departLane="-180801664_0" departPos="4.60" departSpeed="12.09" departDelay="0.73" arrival="144.00" arrivalLane="202234067_0" arrivalPos="76.29" arrivalSpeed="14.26" duration="107.00" routeLength="1020.13" waitingTime="15.00" waitingCount="1" stopTime="0.00" timeLoss="35.65" rerouteNo="0" devices="tripinfo_30" vType="car" speedFactor="1.05" vaporized=""/>
    <tripinfo id="76" depart="100.00" departLane="-1182936853_1" departPos="4.60" departSpeed="13.64" departDelay="0.88" arrival="144.00" arrivalLane="12528053#0_0" arrivalPos="37.68" arrivalSpeed="13.24" duration="44.00" routeLength="157.25" waitingTime="27.00" waitingCount="1" stopTime="0.00" timeLoss="31.62" rerouteNo="0" devices="tripinfo_76" vType="car" speedFactor="0.98" vaporized=""/>
    <tripinfo id="64" depart="76.00" departLane="-1182936853_0" departPos="4.60" departSpeed="14.47" departDelay="0.60" arrival="145.00" arrivalLane="26202222#0_0" arrivalPos="59.75" arrivalSpeed="14.26" duration="69.00" routeLength="176.37" waitingTime="51.00" waitingCount="1" stopTime="0.00" timeLoss="56.05" rerouteNo="0" devices="tripinfo_64" vType="car" speedFactor="1.04" vaporized=""/>
    <tripinfo id="98" depart="133.00" departLane="-1182936853_1" departPos="4.60" departSpeed="13.39" departDelay="0.23" arrival="146.00" arrivalLane="12528053#0_0" arrivalPos="37.68" arrivalSpeed="13.36" duration="13.00" routeLength="157.25" waitingTime="0.00" waitingCount="0" stopTime="0.00" timeLoss="0.28" rerouteNo="0" devices="tripinfo_98" vType="car" speedFactor="0.96" vaporized=""/>
    <tripinfo id="81" depart="109.00" departLane="-1182936853_0" departPos="4.60" departSpeed="13.02" departDelay="0.81" arrival="147.00" arrivalLane="26202222#0_0" arrivalPos="59.75" arrivalSpeed="13.02" duration="38.00" routeLength="176.37" waitingTime="19.00" waitingCount="1" stopTime="0.00" timeLoss="23.75" rerouteNo="0" devices="tripinfo_81" vType="car" speedFactor="0.94" vaporized=""/>
    <tripinfo id="92" depart="123.00" departLane="-202157703_1" departPos="5.90" departSpeed="14.75" departDelay="0.37" arrival="147.00" arrivalLane="893429999#1_0" arrivalPos="88.16" arrivalSpeed="14.66" duration="24.00" routeLength="156.75" waitingTime="7.00" waitingCount="1" stopTime="0.00" timeLoss="13.25" rerouteNo="0" devices="tripinfo_92" vType="van" speedFactor="1.06" vaporized=""/>
    <tripinfo id="57" depart="70.00" departLane="-25563346#2_0" departPos="4.60" departSpeed="14.08" departDelay="0.21" arrival="149.00" arrivalLane="13831317#0_0" arrivalPos="59.28" arrivalSpeed="13.44" duration="79.00" routeLength="140.23" waitingTime="64.00" waitingCount="1" stopTime="0.00" timeLoss="67.45" rerouteNo="0" devices="tripinfo_57" vType="car" speedFactor="1.01" vaporized=""/>
    <tripinfo id="101" depart="138.00" departLane="-1182936853_1" departPos="4.60" departSpeed="15.15" departDelay="0.53" arrival="149.00" arrivalLane="12528053#0_0" arrivalPos="37.68" arrivalSpeed="14.99" duration="11.00" routeLength="157.25" waitingTime="0.00" waitingCount="0" stopTime="0.00" timeLoss="0.18" rerouteNo="0" devices="tripinfo_101" vType="car" speedFactor="1.09" vaporized=""/>
    <tripinfo id="37" depart="48.00" departLane="-26202222#0_0" departPos="5.90" departSpeed="13.92" departDelay="0.52" arrival="151.00" arrivalLane="14811373#0_0" arrivalPos="56.84" arrivalSpeed="8.22" duration="103.00" routeLength="630.35" waitingTime="49.00" waitingCount="1" stopTime="0.00" timeLoss="53.97" rerouteNo="0" devices="tripinfo_37" vType="van" speedFactor="1.00" vaporized=""/>
    <tripinfo id="33" depart="43.00" departLane="-13831317#2_0" departPos="4.60" departSpeed="12.52" departDelay="0.05" arrival="152.00" arrivalLane="202234067_0" arrivalPos="76.29" arrivalSpeed="11.99" duration="109.00" routeLength="565.94" waitingTime="47.00" waitingCount="4" stopTime="0.00" timeLoss="63.57" rerouteNo="0" devices="tripinfo_33" vType="car" speedFactor="0.90" vaporized=""/>
    <tripinfo id="103" depart="139.00" departLane="-1182936853_0" departPos="4.60" departSpeed="15.32" departDelay="0.14" arrival="152.00" arrivalLane="26202222#0_0" arrivalPos="59.75" arrivalSpeed="15.10" duration="13.00" routeLength="176.37" waitingTime="0.00" waitingCount="0" stopTime="0.00" timeLoss="0.35" rerouteNo="0" devices="tripinfo_103" vType="car" speedFactor="1.10" vaporized=""/>
    <tripinfo id="40" depart="52.00" departLane="-13831317#2_0" departPos="4.60" departSpeed="13.46" departDelay="0.28" arrival="154.00" arrivalLane="202234067_0" arrivalPos="76.29" arrivalSpeed="13.39" duration="102.00" routeLength="567.58" waitingTime="44.00" waitingCount="3" stopTime="0.00" timeLoss="59.09" rerouteNo="0" devices="tripinfo_40" vType="car" speedFactor="0.97" vaporized=""/>
    <tripinfo id="59" depart="72.00" departLane="-26202222#0_0" departPos="4.60" departSpeed="13.62" departDelay="0.84" arrival="156.00" arrivalLane="14811373#0_0" arrivalPos="56.84" arrivalSpeed="7.99" duration="84.00" routeLength="631.65" waitingTime="26.00" waitingCount="1" stopTime="0.00" timeLoss="33.50" rerouteNo="0" devices="tripinfo_59" vType="car" speedFactor="0.98" vaporized=""/>
    <tripinfo id="63" depart="76.00" departLane="-180801664_0" departPos="4.60" departSpeed="11.21" departDelay="0.96" arrival="158.00" arrivalLane="-281402232_0" arrivalPos="33.94" arrivalSpeed="6.96" duration="82.00" routeLength="482.94" waitingTime="27.00" waitingCount="2" stopTime="0.00" timeLoss="39.24" rerouteNo="0" devices="tripinfo_63" vType="car" speedFactor="0.87" vaporized=""/>
    <tripinfo id="75" depart="95.00" departLane="-26202222#0_0" departPos="4.60" departSpeed="14.03" departDelay="0.41" arrival="158.00" arrivalLane="14811373#0_0" arrivalPos="56.84" arrivalSpeed="8.02" duration="63.00" routeLength="631.65" waitingTime="6.00" waitingCount="1" stopTime="0.00" timeLoss="14.69" rerouteNo="0" devices="tripinfo_75" vType="car" speedFactor="1.03" vaporized=""/>
    <tripinfo id="77" depart="100.00" departLane="-180801664_0" departPos="4.60" departSpeed="9.45" departDelay="0.61" arrival="160.00" arrivalLane="-281402232_0" arrivalPos="33.94" arrivalSpeed="8.47" duration="60.00" routeLength="482.94" waitingTime="10.00" waitingCount="1" stopTime="0.00" timeLoss="24.22" rerouteNo="0" devices="tripinfo_77" vType="car" speedFactor="1.05" vaporized=""/>
    <tripinfo id="113" depart="150.00" departLane="-1182936853_0" departPos="4.60" departSpeed="12.89" departDelay="0.29" arrival="165.00" arrivalLane="26202222#0_0" arrivalPos="59.75" arrivalSpeed="12.69" duration="15.00" routeLength="176.37" waitingTime="0.00" waitingCount="0" stopTime="0.00" timeLoss="0.46" rerouteNo="0" devices="tripinfo_113" vType="car" speedFactor="0.93" vaporized=""/>
    <tripinfo id="117" depart="158.00" departLane="-202157703_1" departPos="4.60" departSpeed="14.47" departDelay="0.46" arrival="170.00" arrivalLane="893429999#1_0" arrivalPos="88.16" arrivalSpeed="14.45" duration="12.00" routeLength="158.05" waitingTime="0.00" waitingCount="0" stopTime="0.00" timeLoss="0.27" rerouteNo="0" devices="tripinfo_117" vType="car" speedFactor="1.04" vaporized=""/>
    <tripinfo id="91" depart="121.00" departLane="-81920369_0" departPos="4.60" departSpeed="15.21" departDelay="0.10" arrival="177.00" arrivalLane="308681382#0_0" arrivalPos="70.56" arrivalSpeed="8.93" duration="56.00" routeLength="208.70" waitingTime="33.00" waitingCount="1" stopTime="0.00" timeLoss="37.44" rerouteNo="0" devices="tripinfo_91" vType="car" speedFactor="1.09" vaporized=""/>
    <tripinfo id="44" depart="59.00" departLane="-203986456#0_0" departPos="10.10" departSpeed="8.32" departDelay="0.37" arrival="178.00" arrivalLane="202234067_0" arrivalPos="76.29" arrivalSpeed="13.74" duration="119.00" routeLength="403.46" waitingTime="72.00" waitingCount="2" stopTime="0.00" timeLoss="85.27" rerouteNo="0" devices="tripinfo_44" vType="truck" speedFactor="1.00" vaporized=""/>
    <tripinfo id="83" depart="111.00" departLane="-180801664_0" departPos="4.60" departSpeed="13.94" departDelay="0.76" arrival="178.00" arrivalLane="-237921036_0" arrivalPos="51.52" arrivalSpeed="13.37" duration="67.00" routeLength="486.89" waitingTime="25.00" waitingCount="1" stopTime="0.00" timeLoss="30.87" rerouteNo="0" devices="tripinfo_83" vType="car" speedFactor="1.00" vaporized=""/>
    <tripinfo id="87" depart="113.00" departLane="-180801664_0" departPos="4.60" departSpeed="8.46" departDelay="0.65" arrival="179.00" arrivalLane="-237921036_0" arrivalPos="51.52" arrivalSpeed="14.04" duration="66.00" routeLength="486.89" waitingTime="24.00" waitingCount="1" stopTime="0.00" timeLoss="30.90" rerouteNo="0" devices="tripinfo_87" vType="car" speedFactor="1.02" vaporized=""/>
    <tripinfo id="7" depart="11.00" departLane="-308681382#1_0" departPos="4.60" departSpeed="9.15" departDelay="0.57" arrival="190.00" arrivalLane="180801664_0" arrivalPos="75.36" arrivalSpeed="15.14" duration="179.00" routeLength="975.57" waitingTime="99.00" waitingCount="2" stopTime="0.00" timeLoss="110.85" rerouteNo="0" devices="tripinfo_7" vType="car" speedFactor="1.10" vaporized=""/>
    <tripinfo id="51" depart="65.00" departLane="237921036_1" departPos="4.60" departSpeed="14.51" departDelay="0.51" arrival="191.00" arrivalLane="180801664_0" arrivalPos="75.36" arrivalSpeed="14.14" duration="126.00" routeLength="500.09" waitingTime="80.00" waitingCount="2" stopTime="0.00" timeLoss="91.44" rerouteNo="0" devices="tripinfo_51" vType="car" speedFactor="1.04" vaporized=""/>
    <tripinfo id="55" depart="66.00" departLane="237921036_1" departPos="4.60" departSpeed="11.99" departDelay="0.17" arrival="193.00" arrivalLane="180801664_0" arrivalPos="75.36" arrivalSpeed="14.46" duration="127.00" routeLength="500.09" waitingTime="79.00" waitingCount="2" stopTime="0.00" timeLoss="92.76" rerouteNo="0" devices="tripinfo_55" vType="car" speedFactor="1.07" vaporized=""/>
    <tripinfo id="60" depart="72.00" departLane="237921036_1" departPos="4.60" departSpeed="13.66" departDelay="0.80" arrival="195.00" arrivalLane="180801664_0" arrivalPos="75.36" arrivalSpeed="13.50" duration="123.00" routeLength="500.09" waitingTime="75.00" waitingCount="2" stopTime="0.00" timeLoss="86.02" rerouteNo="0" devices="tripinfo_60" vType="car" speedFactor="0.98" vaporized=""/>
    <tripinfo id="88" depart="114.00" departLane="237921036_1" departPos="4.60" departSpeed="12.61" departDelay="0.43" arrival="197.00" arrivalLane="180801664_0" arrivalPos="75.36" arrivalSpeed="12.35" duration="83.00" routeLength="500.09" waitingTime="32.00" waitingCount="2" stopTime="0.00" timeLoss="43.14" rerouteNo="0" devices="tripinfo_88" vType="car" speedFactor="0.91" vaporized=""/>
    <tripinfo id="10" depart="15.00" departLane="-308681382#1_0" departPos="4.60" departSpeed="8.61" departDelay="0.87" arrival="199.00" arrivalLane="180801664_0" arrivalPos="75.36" arrivalSpeed="13.76" duration="184.00" routeLength="975.57" waitingTime="101.00" waitingCount="2" stopTime="0.00" timeLoss="111.79" rerouteNo="0" devices="tripinfo_10" vType="car" speedFactor="1.03" vaporized=""/>
    <tripinfo id="16" depart="25.00" departLane="-308681382#1_0" departPos="4.60" departSpeed="8.39" departDelay="0.68" arrival="201.00" arrivalLane="180801664_0" arrivalPos="75.36" arrivalSpeed="13.47" duration="176.00" routeLength="975.57" waitingTime="91.00" waitingCount="2" stopTime="0.00" timeLoss="101.93" rerouteNo="0" devices="tripinfo_16" vType="car" speedFactor="1.01" vaporized=""/>
    <tripinfo id="35" depart="46.00" departLane="-308681382#1_0" departPos="4.60" departSpeed="9.46" departDelay="0.59" arrival="202.00" arrivalLane="180801664_0" arrivalPos="75.36" arrivalSpeed="15.50" duration="156.00" routeLength="975.57" waitingTime="71.00" waitingCount="2" stopTime="0.00" timeLoss="90.63" rerouteNo="0" devices="tripinfo_35" vType="car" speedFactor="1.14" vaporized=""/>
    <tripinfo id="29" depart="36.00" departLane="-180801664_0" departPos="4.60" departSpeed="14.23" departDelay="0.16" arrival="204.00" arrivalLane="893429999#1_0" arrivalPos="88.16" arrivalSpeed="13.93" duration="168.00" routeLength="1459.66" waitingTime="47.00" waitingCount="3" stopTime="0.00" timeLoss="64.88" rerouteNo="0" devices="tripinfo_29" vType="car" speedFactor="1.02" vaporized=""/>
    <tripinfo id="41" depart="56.00" departLane="-308681382#1_0" departPos="4.60" departSpeed="8.49" departDelay="0.47" arrival="204.00" arrivalLane="180801664_0" arrivalPos="75.36" arrivalSpeed="13.76" duration="148.00" routeLength="975.57" waitingTime="62.00" waitingCount="2" stopTime="0.00" timeLoss="74.86" rerouteNo="0" devices="tripinfo_41" vType="car" speedFactor="1.02" vaporized=""/>
    <tripinfo id="52" depart="65.00" departLane="-308681382#1_0" departPos="4.60" departSpeed="9.11" departDelay="0.28" arrival="205.00" arrivalLane="180801664_0" arrivalPos="75.36" arrivalSpeed="15.00" duration="140.00" routeLength="975.57" waitingTime="54.00" waitingCount="2" stopTime="0.00" timeLoss="72.28" rerouteNo="0" devices="tripinfo_52" vType="car" speedFactor="1.09" vaporized=""/>
    <tripinfo id="36" depart="48.00" departLane="-180801664_0" departPos="4.60" departSpeed="14.42" departDelay="0.78" arrival="206.00" arrivalLane="893429999#1_0" arrivalPos="88.16" arrivalSpeed="14.34" duration="158.00" routeLength="1459.66" waitingTime="41.00" waitingCount="2" stopTime="0.00" timeLoss="56.21" rerouteNo="0" devices="tripinfo_36" vType="car" speedFactor="1.04" vaporized=""/>
    <tripinfo id="47" depart="62.00" departLane="-203986456#0_0" departPos="4.60" departSpeed="7.71" departDelay="0.65" arrival="206.00" arrivalLane="12528053#0_0" arrivalPos="37.68" arrivalSpeed="12.82" duration="144.00" routeLength="452.06" waitingTime="91.00" waitingCount="3" stopTime="0.00" timeLoss="103.55" rerouteNo="0" devices="tripinfo_47" vType="car" speedFactor="0.93" vaporized=""/>
    <tripinfo id="53" depart="66.00" departLane="-308681382#1_0" departPos="4.60" departSpeed="5.76" departDelay="0.45" arrival="207.00" arrivalLane="180801664_0" arrivalPos="75.36" arrivalSpeed="14.16" duration="141.00" routeLength="975.57" waitingTime="53.00" waitingCount="2" stopTime="0.00" timeLoss="68.29" rerouteNo="0" devices="tripinfo_53" vType="car" speedFactor="1.03" vaporized=""/>
    <tripinfo id="99" depart="136.00" departLane="-203986456#0_0" departPos="4.60" departSpeed="8.36" departDelay="0.90" arrival="207.00" arrivalLane="12528053#0_0" arrivalPos="37.68" arrivalSpeed="13.74" duration="71.00" routeLength="452.06" waitingTime="22.00" waitingCount="2" stopTime="0.00" timeLoss="34.28" rerouteNo="0" devices="tripinfo_99" vType="car" speedFactor="1.00" vaporized=""/>
    <tripinfo id="15" depart="25.00" departLane="-180801664_0" departPos="10.10" departSpeed="13.28" departDelay="0.94" arrival="209.00" arrivalLane="26202222#0_0" arrivalPos="59.75" arrivalSpeed="13.06" duration="184.00" routeLength="1458.10" waitingTime="53.00" waitingCount="2" stopTime="0.00" timeLoss="74.07" rerouteNo="0" devices="tripinfo_15" vType="truck" speedFactor="0.96" vaporized=""/>
    <tripinfo id="26" depart="33.00" departLane="237921036_0" departPos="4.60" departSpeed="13.22" departDelay="0.00" arrival="209.00" arrivalLane="12528053#0_0" arrivalPos="37.68" arrivalSpeed="12.69" duration="176.00" routeLength="1068.01" waitingTime="79.00" waitingCount="3" stopTime="0.00" timeLoss="95.08" rerouteNo="0" devices="tripinfo_26" vType="car" speedFactor="0.95" vaporized=""/>
    <tripinfo id="45" depart="60.00" departLane="-26202222#0_0" departPos="4.60" departSpeed="13.75" departDelay="0.37" arrival="211.00" arrivalLane="180801664_0" arrivalPos="75.36" arrivalSpeed="13.33" duration="151.00" routeLength="1454.81" waitingTime="37.00" waitingCount="1" stopTime="0.00" timeLoss="45.05" rerouteNo="0" devices="tripinfo_45" vType="car" speedFactor="0.99" vaporized=""/>