<?xml version="1.0" encoding="UTF-8"?>

<!-- generated on 2026-05-04T10:00:54.768981+01:00 by Eclipse SUMO GUI 1.25.0
<sumoConfiguration xmlns:xsi="http://www.w3.org/2001/XMLSchema-instance" xsi:noNamespaceSchemaLocation="http://sumo.dlr.de/xsd/sumoConfiguration.xsd">

    <input>
        <net-file value="simulation/landau_corridor.net.xml"/>
        <route-files value="C:\Users\mogul\OneDrive\Masaüstü\mt_emre\digital_twin\simulation\weekday_evening_sampled_warmup15.rou.xml"/>
        <additional-files value="C:\Users\mogul\OneDrive\Masaüstü\mt_emre\digital_twin\simulation\traffic_mix.add.xml,C:\Users\mogul\OneDrive\Masaüstü\mt_emre\digital_twin\simulation\Corridor_detectors_e1.add.xml,C:\Users\mogul\OneDrive\Masaüstü\mt_emre\digital_twin\simulation\tls_9873_evening.xml,C:\Users\mogul\OneDrive\Masaüstü\mt_emre\digital_twin\simulation\tls_9876_evening.xml,C:\Users\mogul\OneDrive\Masaüstü\mt_emre\digital_twin\simulation\tls_9874_morning.xml,C:\Users\mogul\OneDrive\Masaüstü\mt_emre\digital_twin\simulation\tls_LSA9_evening.xml,C:\Users\mogul\OneDrive\Masaüstü\mt_emre\digital_twin\simulation\tls_9869_evening.xml"/>
    </input>

    <output>
        <tripinfo-output value="C:\Users\mogul\OneDrive\Masaüstü\mt_emre\LOS_Analysis\tripinfo_weekday_evening.xml"/>
    </output>

    <time>
        <begin value="0"/>
        <end value="4500"/>
    </time>

    <traci_server>
        <remote-port value="64255"/>
    </traci_server>

    <gui_only>
        <start value="true"/>
    </gui_only>

</sumoConfiguration>
-->

<tripinfos xmlns:xsi="http://www.w3.org/2001/XMLSchema-instance" xsi:noNamespaceSchemaLocation="http://sumo.dlr.de/xsd/tripinfo_file.xsd">
    <tripinfo id="0" depart="1.00" departLane="-180801664_0" departPos="5.90" departSpeed="13.68" departDelay="0.16" arrival="39.00" arrivalLane="-237921036_0" arrivalPos="51.52" arrivalSpeed="13.30" duration="38.00" routeLength="485.59" waitingTime="0.00" waitingCount="0" stopTime="0.00" timeLoss="1.02" rerouteNo="0" devices="tripinfo_0" vType="van" speedFactor="0.99" vaporized=""/>
    <tripinfo id="1" depart="3.00" departLane="-180801664_0" departPos="4.60" departSpeed="14.81" departDelay="0.18" arrival="40.00" arrivalLane="-237921036_0" arrivalPos="51.52" arrivalSpeed="14.54" duration="37.00" routeLength="486.89" waitingTime="0.00" waitingCount="0" stopTime="0.00" timeLoss="3.39" rerouteNo="0" devices="tripinfo_1" vType="car" speedFactor="1.07" vaporized=""/>
    <tripinfo id="7" depart="8.00" departLane="-180801664_0" departPos="4.60" departSpeed="14.81" departDelay="0.60" arrival="49.00" arrivalLane="-237921036_0" arrivalPos="51.52" arrivalSpeed="14.72" duration="41.00" routeLength="486.89" waitingTime="0.00" waitingCount="0" stopTime="0.00" timeLoss="8.48" rerouteNo="0" devices="tripinfo_7" vType="car" speedFactor="1.10" vaporized=""/>
    <tripinfo id="6" depart="8.00" departLane="-13831317#2_0" departPos="4.60" departSpeed="13.03" departDelay="0.79" arrival="54.00" arrivalLane="17707991#0_0" arrivalPos="49.91" arrivalSpeed="7.35" duration="46.00" routeLength="128.17" waitingTime="28.00" waitingCount="1" stopTime="0.00" timeLoss="32.72" rerouteNo="0" devices="tripinfo_6" vType="car" speedFactor="0.94" vaporized=""/>
    <tripinfo id="14" depart="17.00" departLane="-180801664_0" departPos="4.60" departSpeed="14.21" departDelay="0.34" arrival="55.00" arrivalLane="-237921036_0" arrivalPos="51.52" arrivalSpeed="13.60" duration="38.00" routeLength="486.89" waitingTime="0.00" waitingCount="0" stopTime="0.00" timeLoss="2.97" rerouteNo="0" devices="tripinfo_14" vType="car" speedFactor="1.02" vaporized=""/>
    <tripinfo id="44" depart="43.00" departLane="-26202222#0_1" departPos="10.10" departSpeed="13.88" departDelay="0.61" arrival="56.00" arrivalLane="893429999#1_1" arrivalPos="88.16" arrivalSpeed="13.66" duration="13.00" routeLength="178.26" waitingTime="0.00" waitingCount="0" stopTime="0.00" timeLoss="0.11" rerouteNo="0" devices="tripinfo_44" vType="truck" speedFactor="1.00" vaporized=""/>
    <tripinfo id="15" depart="18.00" departLane="-180801664_0" departPos="10.10" departSpeed="8.96" departDelay="0.73" arrival="58.00" arrivalLane="-237921036_0" arrivalPos="51.52" arrivalSpeed="13.07" duration="40.00" routeLength="481.39" waitingTime="0.00" waitingCount="0" stopTime="0.00" timeLoss="2.43" rerouteNo="0" devices="tripinfo_15" vType="truck" speedFactor="0.96" vaporized=""/>
    <tripinfo id="46" depart="44.00" departLane="-13831317#2_0" departPos="4.60" departSpeed="13.44" departDelay="0.41" arrival="58.00" arrivalLane="25563346#0_0" arrivalPos="71.08" arrivalSpeed="12.82" duration="14.00" routeLength="147.75" waitingTime="0.00" waitingCount="0" stopTime="0.00" timeLoss="1.15" rerouteNo="0" devices="tripinfo_46" vType="car" speedFactor="0.97" vaporized=""/>
    <tripinfo id="47" depart="45.00" departLane="-25563346#2_0" departPos="4.60" departSpeed="12.86" departDelay="0.99" arrival="59.00" arrivalLane="13831317#0_0" arrivalPos="59.28" arrivalSpeed="12.46" duration="14.00" routeLength="140.23" waitingTime="0.00" waitingCount="0" stopTime="0.00" timeLoss="2.15" rerouteNo="0" devices="tripinfo_47" vType="car" speedFactor="0.93" vaporized=""/>
    <tripinfo id="54" depart="49.00" departLane="237921036_0" departPos="4.60" departSpeed="12.98" departDelay="0.97" arrival="63.00" arrivalLane="-281402232_0" arrivalPos="33.94" arrivalSpeed="7.72" duration="14.00" routeLength="139.77" waitingTime="0.00" waitingCount="0" stopTime="0.00" timeLoss="0.51" rerouteNo="0" devices="tripinfo_54" vType="car" speedFactor="0.93" vaporized=""/>
    <tripinfo id="13" depart="15.00" departLane="-1182936853_1" departPos="5.90" departSpeed="13.97" departDelay="0.87" arrival="64.00" arrivalLane="12528053#0_0" arrivalPos="37.68" arrivalSpeed="13.44" duration="49.00" routeLength="155.95" waitingTime="32.00" waitingCount="1" stopTime="0.00" timeLoss="37.36" rerouteNo="0" devices="tripinfo_13" vType="van" speedFactor="1.01" vaporized=""/>
    <tripinfo id="22" depart="23.00" departLane="-1182936853_1" departPos="4.60" departSpeed="15.24" departDelay="0.38" arrival="65.00" arrivalLane="12528053#0_0" arrivalPos="37.68" arrivalSpeed="15.16" duration="42.00" routeLength="157.25" waitingTime="26.00" waitingCount="1" stopTime="0.00" timeLoss="31.68" rerouteNo="0" devices="tripinfo_22" vType="car" speedFactor="1.10" vaporized=""/>
    <tripinfo id="29" depart="29.00" departLane="-1182936853_0" departPos="4.60" departSpeed="14.23" departDelay="0.04" arrival="65.00" arrivalLane="26202222#0_0" arrivalPos="59.75" arrivalSpeed="13.78" duration="36.00" routeLength="176.37" waitingTime="18.00" waitingCount="1" stopTime="0.00" timeLoss="22.74" rerouteNo="0" devices="tripinfo_29" vType="car" speedFactor="1.02" vaporized=""/>
    <tripinfo id="41" depart="40.00" departLane="-1182936853_0" departPos="4.60" departSpeed="14.15" departDelay="0.82" arrival="66.00" arrivalLane="26202222#0_0" arrivalPos="59.75" arrivalSpeed="13.73" duration="26.00" routeLength="176.37" waitingTime="8.00" waitingCount="1" stopTime="0.00" timeLoss="13.28" rerouteNo="0" devices="tripinfo_41" vType="car" speedFactor="1.02" vaporized=""/>
    <tripinfo id="42" depart="40.00" departLane="-202157703_2" departPos="4.60" departSpeed="13.86" departDelay="0.50" arrival="67.00" arrivalLane="893429999#1_1" arrivalPos="88.16" arrivalSpeed="13.36" duration="27.00" routeLength="158.05" waitingTime="11.00" waitingCount="1" stopTime="0.00" timeLoss="15.12" rerouteNo="0" devices="tripinfo_42" vType="car" speedFactor="1.00" vaporized=""/>
    <tripinfo id="3" depart="5.00" departLane="-202157703_1" departPos="4.60" departSpeed="12.62" departDelay="0.82" arrival="68.00" arrivalLane="893429999#1_0" arrivalPos="88.16" arrivalSpeed="12.51" duration="63.00" routeLength="158.05" waitingTime="45.00" waitingCount="1" stopTime="0.00" timeLoss="50.00" rerouteNo="0" devices="tripinfo_3" vType="car" speedFactor="0.91" vaporized=""/>
    <tripinfo id="9" depart="10.00" departLane="-203986456#0_0" departPos="10.10" departSpeed="8.09" departDelay="0.17" arrival="69.00" arrivalLane="202234067_0" arrivalPos="76.29" arrivalSpeed="13.27" duration="59.00" routeLength="403.46" waitingTime="17.00" waitingCount="1" stopTime="0.00" timeLoss="24.53" rerouteNo="0" devices="tripinfo_9" vType="truck" speedFactor="0.97" vaporized=""/>
    <tripinfo id="57" depart="50.00" departLane="-202157703_2" departPos="4.60" departSpeed="13.47" departDelay="0.15" arrival="69.00" arrivalLane="893429999#1_1" arrivalPos="88.16" arrivalSpeed="13.50" duration="19.00" routeLength="158.05" waitingTime="2.00" waitingCount="1" stopTime="0.00" timeLoss="6.87" rerouteNo="0" devices="tripinfo_57" vType="car" speedFactor="1.01" vaporized=""/>
    <tripinfo id="2" depart="4.00" departLane="-180801664_0" departPos="4.60" departSpeed="12.14" departDelay="0.64" arrival="75.00" arrivalLane="-281402232_0" arrivalPos="33.94" arrivalSpeed="6.72" duration="71.00" routeLength="482.94" waitingTime="23.00" waitingCount="1" stopTime="0.00" timeLoss="28.18" rerouteNo="0" devices="tripinfo_2" vType="car" speedFactor="0.87" vaporized=""/>
    <tripinfo id="26" depart="27.00" departLane="-180801664_0" departPos="4.60" departSpeed="7.54" departDelay="2.68" arrival="77.00" arrivalLane="-281402232_0" arrivalPos="33.94" arrivalSpeed="7.43" duration="50.00" routeLength="482.94" waitingTime="3.00" waitingCount="1" stopTime="0.00" timeLoss="10.37" rerouteNo="0" devices="tripinfo_26" vType="car" speedFactor="0.95" vaporized=""/>
    <tripinfo id="27" depart="28.00" departLane="-180801664_0" departPos="4.60" departSpeed="3.52" departDelay="3.50" arrival="79.00" arrivalLane="-281402232_0" arrivalPos="33.94" arrivalSpeed="8.69" duration="51.00" routeLength="482.94" waitingTime="2.00" waitingCount="1" stopTime="0.00" timeLoss="15.72" rerouteNo="0" devices="tripinfo_27" vType="car" speedFactor="1.08" vaporized=""/>
    <tripinfo id="31" depart="33.00" departLane="-180801664_0" departPos="4.60" departSpeed="5.17" departDelay="2.42" arrival="80.00" arrivalLane="-281402232_0" arrivalPos="33.94" arrivalSpeed="8.41" duration="47.00" routeLength="482.94" waitingTime="0.00" waitingCount="0" stopTime="0.00" timeLoss="10.78" rerouteNo="0" devices="tripinfo_31" vType="car" speedFactor="1.03" vaporized=""/>
    <tripinfo id="30" depart="30.00" departLane="-1183449794_0" departPos="4.60" departSpeed="8.77" departDelay="0.64" arrival="95.00" arrivalLane="26202222#0_0" arrivalPos="59.75" arrivalSpeed="14.57" duration="65.00" routeLength="276.96" waitingTime="34.00" waitingCount="2" stopTime="0.00" timeLoss="43.36" rerouteNo="0" devices="tripinfo_30" vType="car" speedFactor="1.05" vaporized=""/>
    <tripinfo id="51" depart="48.00" departLane="-1183449794_0" departPos="4.60" departSpeed="8.70" departDelay="0.78" arrival="97.00" arrivalLane="26202222#0_0" arrivalPos="59.75" arrivalSpeed="13.89" duration="49.00" routeLength="276.96" waitingTime="17.00" waitingCount="2" stopTime="0.00" timeLoss="27.01" rerouteNo="0" devices="tripinfo_51" vType="car" speedFactor="1.04" vaporized=""/>
    <tripinfo id="24" depart="24.00" departLane="237921036_1" departPos="4.60" departSpeed="13.54" departDelay="0.87" arrival="100.00" arrivalLane="180801664_0" arrivalPos="75.36" arrivalSpeed="12.95" duration="76.00" routeLength="500.09" waitingTime="29.00" waitingCount="2" stopTime="0.00" timeLoss="38.77" rerouteNo="0" devices="tripinfo_24" vType="car" speedFactor="0.97" vaporized=""/>
    <tripinfo id="28" depart="31.00" departLane="-180801664_0" departPos="10.10" departSpeed="4.84" departDelay="2.84" arrival="101.00" arrivalLane="-237921036_0" arrivalPos="51.52" arrivalSpeed="12.75" duration="70.00" routeLength="481.39" waitingTime="20.00" waitingCount="1" stopTime="0.00" timeLoss="31.69" rerouteNo="0" devices="tripinfo_28" vType="truck" speedFactor="0.93" vaporized=""/>
    <tripinfo id="33" depart="31.00" departLane="-203986456#0_0" departPos="4.60" departSpeed="7.51" departDelay="0.22" arrival="102.00" arrivalLane="12528053#0_0" arrivalPos="37.68" arrivalSpeed="12.04" duration="71.00" routeLength="452.06" waitingTime="24.00" waitingCount="1" stopTime="0.00" timeLoss="30.06" rerouteNo="0" devices="tripinfo_33" vType="car" speedFactor="0.90" vaporized=""/>
    <tripinfo id="38" depart="35.00" departLane="237921036_1" departPos="10.10" departSpeed="13.49" departDelay="0.05" arrival="104.00" arrivalLane="180801664_0" arrivalPos="75.36" arrivalSpeed="13.80" duration="69.00" routeLength="494.59" waitingTime="15.00" waitingCount="1" stopTime="0.00" timeLoss="33.19" rerouteNo="0" devices="tripinfo_38" vType="truck" speedFactor="1.04" vaporized=""/>
    <tripinfo id="17" depart="18.00" departLane="-81920369_0" departPos="4.60" departSpeed="12.47" departDelay="0.18" arrival="105.00" arrivalLane="308681382#0_0" arrivalPos="70.56" arrivalSpeed="7.39" duration="87.00" routeLength="208.70" waitingTime="60.00" waitingCount="1" stopTime="0.00" timeLoss="64.46" rerouteNo="0" devices="tripinfo_17" vType="car" speedFactor="0.90" vaporized=""/>
    <tripinfo id="37" depart="34.00" departLane="-81920369_0" departPos="5.90" departSpeed="13.92" departDelay="0.74" arrival="107.00" arrivalLane="308681382#0_0" arrivalPos="70.56" arrivalSpeed="7.94" duration="73.00" routeLength="207.40" waitingTime="46.00" waitingCount="1" stopTime="0.00" timeLoss="52.73" rerouteNo="0" devices="tripinfo_37" vType="van" speedFactor="1.00" vaporized=""/>
    <tripinfo id="39" depart="37.00" departLane="237921036_1" departPos="5.90" departSpeed="11.38" departDelay="0.96" arrival="107.00" arrivalLane="180801664_0" arrivalPos="75.36" arrivalSpeed="12.80" duration="70.00" routeLength="498.79" waitingTime="14.00" waitingCount="1" stopTime="0.00" timeLoss="30.92" rerouteNo="0" devices="tripinfo_39" vType="van" speedFactor="0.94" vaporized=""/>
    <tripinfo id="56" depart="50.00" departLane="237921036_1" departPos="4.60" departSpeed="12.75" departDelay="0.44" arrival="108.00" arrivalLane="180801664_0" arrivalPos="75.36" arrivalSpeed="12.56" duration="58.00" routeLength="500.09" waitingTime="10.00" waitingCount="1" stopTime="0.00" timeLoss="18.69" rerouteNo="0" devices="tripinfo_56" vType="car" speedFactor="0.92" vaporized=""/>
    <tripinfo id="45" depart="43.00" departLane="-81920369_0" departPos="4.60" departSpeed="13.75" departDelay="0.05" arrival="109.00" arrivalLane="308681382#0_0" arrivalPos="70.56" arrivalSpeed="8.14" duration="66.00" routeLength="208.70" waitingTime="39.00" waitingCount="1" stopTime="0.00" timeLoss="45.30" rerouteNo="0" devices="tripinfo_45" vType="car" speedFactor="0.99" vaporized=""/>
    <tripinfo id="52" depart="48.00" departLane="-81920369_0" departPos="4.60" departSpeed="15.20" departDelay="0.52" arrival="110.00" arrivalLane="308681382#0_0" arrivalPos="70.56" arrivalSpeed="9.06" duration="62.00" routeLength="208.70" waitingTime="37.00" waitingCount="1" stopTime="0.00" timeLoss="43.93" rerouteNo="0" devices="tripinfo_52" vType="car" speedFactor="1.09" vaporized=""/>
    <tripinfo id="98" depart="83.00" departLane="-81920369_0" departPos="4.60" departSpeed="13.39" departDelay="0.76" arrival="114.00" arrivalLane="308681382#0_0" arrivalPos="70.56" arrivalSpeed="7.42" duration="31.00" routeLength="208.70" waitingTime="3.00" waitingCount="1" stopTime="0.00" timeLoss="9.51" rerouteNo="0" devices="tripinfo_98" vType="car" speedFactor="0.96" vaporized=""/>
    <tripinfo id="133" depart="116.00" departLane="-26202222#0_1" departPos="4.60" departSpeed="13.24" departDelay="0.94" arrival="131.00" arrivalLane="893429999#1_1" arrivalPos="88.16" arrivalSpeed="13.13" duration="15.00" routeLength="183.76" waitingTime="0.00" waitingCount="0" stopTime="0.00" timeLoss="0.35" rerouteNo="0" devices="tripinfo_133" vType="car" speedFactor="0.95" vaporized=""/>
    <tripinfo id="21" depart="22.00" departLane="237921036_0" departPos="4.60" departSpeed="15.61" departDelay="0.02" arrival="132.00" arrivalLane="12528053#0_0" arrivalPos="37.68" arrivalSpeed="15.34" duration="110.00" routeLength="1068.01" waitingTime="26.00" waitingCount="2" stopTime="0.00" timeLoss="41.19" rerouteNo="0" devices="tripinfo_21" vType="car" speedFactor="1.12" vaporized=""/>
    <tripinfo id="63" depart="59.00" departLane="-180801664_0" departPos="4.60" departSpeed="12.04" departDelay="0.92" arrival="133.00" arrivalLane="-237921036_0" arrivalPos="51.52" arrivalSpeed="12.00" duration="74.00" routeLength="486.89" waitingTime="27.00" waitingCount="1" stopTime="0.00" timeLoss="32.38" rerouteNo="0" devices="tripinfo_63" vType="car" speedFactor="0.87" vaporized=""/>
    <tripinfo id="68" depart="62.00" departLane="-180801664_0" departPos="4.60" departSpeed="15.47" departDelay="0.52" arrival="134.00" arrivalLane="-237921036_0" arrivalPos="51.52" arrivalSpeed="13.96" duration="72.00" routeLength="486.89" waitingTime="26.00" waitingCount="1" stopTime="0.00" timeLoss="39.78" rerouteNo="0" devices="tripinfo_68" vType="car" speedFactor="1.11" vaporized=""/>
    <tripinfo id="11" depart="13.00" departLane="237921036_0" departPos="5.90" departSpeed="13.36" departDelay="0.81" arrival="135.00" arrivalLane="12528053#0_0" arrivalPos="37.68" arrivalSpeed="13.18" duration="122.00" routeLength="1066.71" waitingTime="25.00" waitingCount="3" stopTime="0.00" timeLoss="41.99" rerouteNo="0" devices="tripinfo_11" vType="van" speedFactor="0.96" vaporized=""/>
    <tripinfo id="78" depart="68.00" departLane="237921036_0" departPos="4.60" departSpeed="13.45" departDelay="0.40" arrival="135.00" arrivalLane="-281402232_0" arrivalPos="33.94" arrivalSpeed="7.73" duration="67.00" routeLength="139.77" waitingTime="49.00" waitingCount="1" stopTime="0.00" timeLoss="54.40" rerouteNo="0" devices="tripinfo_78" vType="car" speedFactor="0.97" vaporized=""/>
    <tripinfo id="71" depart="65.00" departLane="-25563346#2_0" departPos="4.60" departSpeed="13.54" departDelay="0.32" arrival="136.00" arrivalLane="13831317#0_0" arrivalPos="59.28" arrivalSpeed="13.08" duration="71.00" routeLength="140.23" waitingTime="55.00" waitingCount="1" stopTime="0.00" timeLoss="59.30" rerouteNo="0" devices="tripinfo_71" vType="car" speedFactor="0.97" vaporized=""/>
    <tripinfo id="103" depart="86.00" departLane="-13831317#2_0" departPos="4.60" departSpeed="15.32" departDelay="0.83" arrival="137.00" arrivalLane="17707991#0_0" arrivalPos="49.91" arrivalSpeed="9.07" duration="51.00" routeLength="128.17" waitingTime="35.00" waitingCount="1" stopTime="0.00" timeLoss="39.93" rerouteNo="0" devices="tripinfo_103" vType="car" speedFactor="1.10" vaporized=""/>
    <tripinfo id="109" depart="91.00" departLane="237921036_0" departPos="4.60" departSpeed="14.68" departDelay="0.90" arrival="137.00" arrivalLane="-281402232_0" arrivalPos="33.94" arrivalSpeed="8.38" duration="46.00" routeLength="139.77" waitingTime="28.00" waitingCount="1" stopTime="0.00" timeLoss="34.29" rerouteNo="0" devices="tripinfo_109" vType="car" speedFactor="1.06" vaporized=""/>
    <tripinfo id="4" depart="6.00" departLane="-180801664_0" departPos="4.60" departSpeed="13.66" departDelay="0.29" arrival="138.00" arrivalLane="-22293947_0" arrivalPos="124.13" arrivalSpeed="8.31" duration="132.00" routeLength="884.41" waitingTime="52.00" waitingCount="2" stopTime="0.00" timeLoss="61.64" rerouteNo="0" devices="tripinfo_4" vType="car" speedFactor="1.01" vaporized=""/>
    <tripinfo id="73" depart="66.00" departLane="-25563346#2_0" departPos="4.60" departSpeed="11.12" departDelay="0.68" arrival="138.00" arrivalLane="13831317#0_0" arrivalPos="59.28" arrivalSpeed="14.66" duration="72.00" routeLength="140.23" waitingTime="55.00" waitingCount="1" stopTime="0.00" timeLoss="61.02" rerouteNo="0" devices="tripinfo_73" vType="car" speedFactor="1.06" vaporized=""/>
    <tripinfo id="76" depart="68.00" departLane="-180801664_0" departPos="4.60" departSpeed="3.50" departDelay="2.26" arrival="139.00" arrivalLane="-237921036_0" arrivalPos="51.52" arrivalSpeed="13.45" duration="71.00" routeLength="486.89" waitingTime="22.00" waitingCount="1" stopTime="0.00" timeLoss="34.60" rerouteNo="0" devices="tripinfo_76" vType="car" speedFactor="0.98" vaporized=""/>
    <tripinfo id="114" depart="95.00" departLane="-25563346#2_0" departPos="4.60" departSpeed="13.84" departDelay="0.41" arrival="140.00" arrivalLane="13831317#0_0" arrivalPos="59.28" arrivalSpeed="13.64" duration="45.00" routeLength="140.23" waitingTime="28.00" waitingCount="1" stopTime="0.00" timeLoss="33.52" rerouteNo="0" devices="tripinfo_114" vType="car" speedFactor="1.00" vaporized=""/>
    <tripinfo id="118" depart="100.00" departLane="-13831317#2_0" departPos="5.90" departSpeed="14.60" departDelay="0.61" arrival="140.00" arrivalLane="17707991#0_0" arrivalPos="49.91" arrivalSpeed="8.42" duration="40.00" routeLength="126.87" waitingTime="21.00" waitingCount="1" stopTime="0.00" timeLoss="27.90" rerouteNo="0" devices="tripinfo_118" vType="van" speedFactor="1.05" vaporized=""/>
    <tripinfo id="8" depart="10.00" departLane="-180801664_0" departPos="4.60" departSpeed="12.78" departDelay="0.66" arrival="141.00" arrivalLane="-22293947_0" arrivalPos="124.13" arrivalSpeed="7.48" duration="131.00" routeLength="884.41" waitingTime="43.00" waitingCount="2" stopTime="0.00" timeLoss="54.26" rerouteNo="0" devices="tripinfo_8" vType="car" speedFactor="0.92" vaporized=""/>
    <tripinfo id="120" depart="102.00" departLane="-13831317#2_0" departPos="4.60" departSpeed="15.31" departDelay="0.98" arrival="142.00" arrivalLane="17707991#0_0" arrivalPos="49.91" arrivalSpeed="9.00" duration="40.00" routeLength="128.17" waitingTime="22.00" waitingCount="1" stopTime="0.00" timeLoss="28.19" rerouteNo="0" devices="tripinfo_120" vType="car" speedFactor="1.10" vaporized=""/>
    <tripinfo id="23" depart="24.00" departLane="-180801664_0" departPos="4.60" departSpeed="10.38" departDelay="1.15" arrival="143.00" arrivalLane="-22293947_0" arrivalPos="124.13" arrivalSpeed="7.96" duration="119.00" routeLength="884.41" waitingTime="30.00" waitingCount="2" stopTime="0.00" timeLoss="47.78" rerouteNo="0" devices="tripinfo_23" vType="car" speedFactor="1.00" vaporized=""/>
    <tripinfo id="143" depart="129.00" departLane="237921036_0" departPos="4.60" departSpeed="12.48" departDelay="0.43" arrival="143.00" arrivalLane="-281402232_0" arrivalPos="33.94" arrivalSpeed="7.00" duration="14.00" routeLength="139.77" waitingTime="0.00" waitingCount="0" stopTime="0.00" timeLoss="0.59" rerouteNo="0" devices="tripinfo_143" vType="car" speedFactor="0.90" vaporized=""/>
    <tripinfo id="40" depart="37.00" departLane="-180801664_0" departPos="4.60" departSpeed="7.08" departDelay="0.73" arrival="146.00" arrivalLane="-22293947_0" arrivalPos="124.13" arrivalSpeed="7.75" duration="109.00" routeLength="884.41" waitingTime="18.00" waitingCount="1" stopTime="0.00" timeLoss="36.20" rerouteNo="0" devices="tripinfo_40" vType="car" speedFactor="0.97" vaporized=""/>
    <tripinfo id="124" depart="109.00" departLane="-1182936853_1" departPos="4.60" departSpeed="14.58" departDelay="0.50" arrival="150.00" arrivalLane="12528053#0_0" arrivalPos="37.68" arrivalSpeed="14.43" duration="41.00" routeLength="157.25" waitingTime="25.00" waitingCount="1" stopTime="0.00" timeLoss="29.28" rerouteNo="0" devices="tripinfo_124" vType="car" speedFactor="1.05" vaporized=""/>
    <tripinfo id="93" depart="80.00" departLane="-1182936853_0" departPos="4.60" departSpeed="14.25" departDelay="0.60" arrival="151.00" arrivalLane="26202222#0_0" arrivalPos="59.75" arrivalSpeed="13.91" duration="71.00" routeLength="176.37" waitingTime="52.00" waitingCount="1" stopTime="0.00" timeLoss="57.62" rerouteNo="0" devices="tripinfo_93" vType="car" speedFactor="1.03" vaporized=""/>
    <tripinfo id="96" depart="81.00" departLane="-1182936853_0" departPos="5.90" departSpeed="11.30" departDelay="0.05" arrival="153.00" arrivalLane="26202222#0_0" arrivalPos="59.75" arrivalSpeed="13.92" duration="72.00" routeLength="175.07" waitingTime="51.00" waitingCount="1" stopTime="0.00" timeLoss="59.08" rerouteNo="0" devices="tripinfo_96" vType="van" speedFactor="1.02" vaporized=""/>
    <tripinfo id="116" depart="98.00" departLane="-202157703_2" departPos="4.60" departSpeed="13.23" departDelay="0.59" arrival="153.00" arrivalLane="893429999#1_1" arrivalPos="88.16" arrivalSpeed="13.16" duration="55.00" routeLength="158.05" waitingTime="38.00" waitingCount="1" stopTime="0.00" timeLoss="42.92" rerouteNo="0" devices="tripinfo_116" vType="car" speedFactor="0.95" vaporized=""/>
    <tripinfo id="112" depart="93.00" departLane="-202157703_1" departPos="5.90" departSpeed="13.95" departDelay="0.66" arrival="154.00" arrivalLane="893429999#1_0" arrivalPos="88.16" arrivalSpeed="13.40" duration="61.00" routeLength="156.75" waitingTime="43.00" waitingCount="1" stopTime="0.00" timeLoss="49.01" rerouteNo="0" devices="tripinfo_112" vType="van" speedFactor="1.00" vaporized=""/>
    <tripinfo id="99" depart="83.00" departLane="-1182936853_0" departPos="4.60" departSpeed="13.42" departDelay="0.33" arrival="155.00" arrivalLane="26202222#0_0" arrivalPos="59.75" arrivalSpeed="13.70" duration="72.00" routeLength="176.37" waitingTime="51.00" waitingCount="1" stopTime="0.00" timeLoss="58.51" rerouteNo="0" devices="tripinfo_99" vType="car" speedFactor="1.00" vaporized=""/>
    <tripinfo id="58" depart="51.00" departLane="-180801664_0" departPos="4.60" departSpeed="14.80" departDelay="0.00" arrival="157.00" arrivalLane="-281402232_0" arrivalPos="33.94" arrivalSpeed="8.66" duration="106.00" routeLength="482.94" waitingTime="59.00" waitingCount="2" stopTime="0.00" timeLoss="70.69" rerouteNo="0" devices="tripinfo_58" vType="car" speedFactor="1.07" vaporized=""/>
    <tripinfo id="123" depart="109.00" departLane="-1182936853_0" departPos="4.60" departSpeed="12.74" departDelay="0.81" arrival="157.00" arrivalLane="26202222#0_0" arrivalPos="59.75" arrivalSpeed="12.24" duration="48.00" routeLength="176.37" waitingTime="27.00" waitingCount="1" stopTime="0.00" timeLoss="33.43" rerouteNo="0" devices="tripinfo_123" vType="car" speedFactor="0.92" vaporized=""/>
    <tripinfo id="150" depart="134.00" departLane="-1182936853_0" departPos="4.60" departSpeed="15.47" departDelay="0.19" arrival="158.00" arrivalLane="26202222#0_0" arrivalPos="59.75" arrivalSpeed="14.61" duration="24.00" routeLength="176.37" waitingTime="5.00" waitingCount="1" stopTime="0.00" timeLoss="12.29" rerouteNo="0" devices="tripinfo_150" vType="car" speedFactor="1.11" vaporized=""/>
    <tripinfo id="49" depart="46.00" departLane="-180801664_0" departPos="4.60" departSpeed="14.14" departDelay="0.95" arrival="159.00" arrivalLane="-22293947_0" arrivalPos="124.13" arrivalSpeed="8.22" duration="113.00" routeLength="884.41" waitingTime="36.00" waitingCount="1" stopTime="0.00" timeLoss="42.67" rerouteNo="0" devices="tripinfo_49" vType="car" speedFactor="1.02" vaporized=""/>
    <tripinfo id="70" depart="65.00" departLane="-180801664_0" departPos="4.60" departSpeed="15.49" departDelay="0.51" arrival="159.00" arrivalLane="-281402232_0" arrivalPos="33.94" arrivalSpeed="8.99" duration="94.00" routeLength="482.94" waitingTime="46.00" waitingCount="2" stopTime="0.00" timeLoss="59.86" rerouteNo="0" devices="tripinfo_70" vType="car" speedFactor="1.12" vaporized=""/>
    <tripinfo id="162" depart="146.00" departLane="-1182936853_1" departPos="4.60" departSpeed="13.03" departDelay="0.25" arrival="159.00" arrivalLane="12528053#0_0" arrivalPos="37.68" arrivalSpeed="12.81" duration="13.00" routeLength="157.25" waitingTime="0.00" waitingCount="0" stopTime="0.00" timeLoss="0.37" rerouteNo="0" devices="tripinfo_162" vType="car" speedFactor="0.94" vaporized=""/>
    <tripinfo id="154" depart="138.00" departLane="-1182936853_0" departPos="4.60" departSpeed="15.77" departDelay="0.94" arrival="160.00" arrivalLane="26202222#0_0" arrivalPos="59.75" arrivalSpeed="15.73" duration="22.00" routeLength="176.37" waitingTime="2.00" waitingCount="1" stopTime="0.00" timeLoss="9.99" rerouteNo="0" devices="tripinfo_154" vType="car" speedFactor="1.14" vaporized=""/>
    <tripinfo id="74" depart="66.00" departLane="-180801664_0" departPos="10.10" departSpeed="10.25" departDelay="0.60" arrival="163.00" arrivalLane="-281402232_0" arrivalPos="33.94" arrivalSpeed="8.56" duration="97.00" routeLength="477.44" waitingTime="41.00" waitingCount="2" stopTime="0.00" timeLoss="59.64" rerouteNo="0" devices="tripinfo_74" vType="truck" speedFactor="1.03" vaporized=""/>
    <tripinfo id="167" depart="150.00" departLane="-1182936853_0" departPos="10.10" departSpeed="13.90" departDelay="0.29" arrival="163.00" arrivalLane="26202222#0_0" arrivalPos="59.75" arrivalSpeed="13.81" duration="13.00" routeLength="170.87" waitingTime="0.00" waitingCount="0" stopTime="0.00" timeLoss="0.21" rerouteNo="0" devices="tripinfo_167" vType="truck" speedFactor="1.02" vaporized=""/>
    <tripinfo id="77" depart="66.00" departLane="-81920369_0" departPos="4.60" departSpeed="14.61" departDelay="0.09" arrival="175.00" arrivalLane="-281402232_0" arrivalPos="33.94" arrivalSpeed="8.32" duration="109.00" routeLength="643.61" waitingTime="51.00" waitingCount="2" stopTime="0.00" timeLoss="61.20" rerouteNo="0" devices="tripinfo_77" vType="car" speedFactor="1.05" vaporized=""/>
    <tripinfo id="87" depart="105.00" departLane="-180801664_0" departPos="4.60" departSpeed="1.43" departDelay="33.66" arrival="178.00" arrivalLane="-237921036_0" arrivalPos="51.52" arrivalSpeed="14.10" duration="73.00" routeLength="486.89" waitingTime="28.00" waitingCount="1" stopTime="0.00" timeLoss="37.39" rerouteNo="0" devices="tripinfo_87" vType="car" speedFactor="1.02" vaporized=""/>
    <tripinfo id="89" depart="108.00" departLane="-180801664_0" departPos="4.60" departSpeed="5.32" departDelay="33.03" arrival="179.00" arrivalLane="-237921036_0" arrivalPos="51.52" arrivalSpeed="13.65" duration="71.00" routeLength="486.89" waitingTime="27.00" waitingCount="1" stopTime="0.00" timeLoss="36.14" rerouteNo="0" devices="tripinfo_89" vType="car" speedFactor="1.03" vaporized=""/>